           9
 Ord_Energy   -15.9416428    
 O    25.3875809       2.28446364       8.01933861    
 H    24.6864510       2.11461496       7.36908007    
 H    26.1070786       1.70453322       7.77935553    
 O    22.9643402       1.68695939       6.75715494    
 H    22.7494984       1.67431045       7.70416498    
 H    22.2382431       2.13693213       6.33168697    
 O    23.0780773       1.86950338       9.54773140    
 H    22.9238548       2.46375370       10.2781725    
 H    23.9850082       2.04813766       9.25002480    
           9
 Ord_Energy   -8.85759830    
 O    25.2453213      -3.97530866       3.67284727    
 H    24.7939930      -3.46715021       2.99743390    
 H    24.7453556      -4.78905869       3.74942327    
 O    27.8706398      -4.68344402       2.56295013    
 H    28.4991150      -4.83106041       3.27777815    
 H    27.0555954      -4.41574097       3.00088620    
 O    29.9938831      -5.06841373       4.55525112    
 H    30.6167030      -5.68695498       4.17105532    
 H    30.4711494      -4.24005413       4.61892414    
