          15
 Ord_Energy   -36.8050499    
 O    22.6740341       18.3313313       2.36740112    
 H    21.7252140       18.4233017       2.37449765    
 H    23.0261517       19.1850681       2.66908669    
 O    24.7526226       16.7118549       1.58136582    
 H    24.4417934       16.1843834      0.850184619    
 H    23.9932823       17.2477150       1.86500895    
 O    23.7644501       20.7165985       3.20218277    
 H    24.6769295       20.7587051       2.87089109    
 H    23.7598801       21.2231483       4.01032400    
 O    26.3569565       20.7128773       2.28660369    
 H    26.6518478       19.7873192       2.26463723    
 H    26.8289013       21.1527119       1.58408201    
 O    27.0686131       18.0584869       2.19903517    
 H    27.5831184       17.4852066       2.76154542    
 H    26.2728043       17.5532722       1.96322060    
          15
 Ord_Energy   -36.8034706    
 O   -3.93995786      -6.02473640      -4.19686174    
 H   -4.41532040      -5.38339520      -3.64293528    
 H   -3.29476976      -6.43370008      -3.62572241    
 O   -5.71987057      -6.92075539      -6.09102821    
 H   -5.39293385      -6.62485600      -6.93681431    
 H   -5.05957127      -6.63418388      -5.43836641    
 O   -5.39236927      -4.27045631      -2.65621853    
 H   -5.43818569      -3.31938314      -2.60007453    
 H   -6.31298447      -4.58120203      -2.64279056    
 O   -8.17880344      -6.92018938      -4.85751724    
 H   -7.32549715      -6.93354082      -5.32201433    
 H   -8.64264011      -7.70174980      -5.14577150    
 O   -7.98111868      -5.19075632      -2.72607112    
 H   -8.71193218      -5.36292696      -2.13845968    
 H   -8.09375000      -5.79624271      -3.47749949    
          15
 Ord_Energy   -36.8031731    
 O   -20.7594128      -24.0895691       3.88183022    
 H   -21.6905289      -23.8826752       3.88270950    
 H   -20.7021942      -25.0491791       4.02306557    
 O   -18.6084576      -23.3396721       2.34043407    
 H   -18.2194557      -22.5733280       2.75352621    
 H   -19.3794937      -23.5694160       2.88526416    
 O   -20.5508404      -26.8170109       4.15873528    
 H   -20.1688957      -27.1572647       3.33261776    
 H   -20.2499294      -27.4058170       4.84610844    
 O   -17.8668137      -25.5782738      0.921027958    
 H   -17.0456848      -25.3886318      0.475335151    
 H   -18.1088390      -24.7646561       1.39358938    
 O   -19.4150524      -27.6699314       1.80430472    
 H   -18.8408661      -26.9582958       1.47536361    
 H   -19.7511730      -28.1123009       1.02900028    
          15
 Ord_Energy   -35.4252281    
 O    25.9954567       18.9991665      0.958306015    
 H    25.8116493       18.0940514       1.24505126    
 H    25.5710201       19.5578480       1.62381065    
 O    24.0029316       19.1803398     -0.915455043    
 H    24.8128300       19.1570835     -0.375840724    
 H    24.1614761       19.8195934      -1.60423517    
 O    24.1688766       20.1624374       2.80596614    
 H    24.1635876       19.8979702       3.72440815    
 H    23.5220051       19.5909195       2.36830449    
 O    22.5592117       18.3525276       1.23901010    
 H    21.6202679       18.3116093       1.08002663    
 H    22.9719715       18.6549625      0.409605652    
 O    24.7465324       16.5758667       1.77579260    
 H    24.6373425       15.7546606       1.30014873    
 H    23.9225845       17.0665264       1.64216781    
          15
 Ord_Energy   -35.2254982    
 O    23.9325676       21.5405121       2.17910647    
 H    24.1348324       21.5879250       3.11104679    
 H    23.5889683       20.6450233       2.03225350    
 O    25.3566360       20.4275093       3.10801603E-02
 H    24.6431847       19.7812023       3.62086296E-02
 H    25.0694180       21.0724220      0.692971766    
 O    25.3835106       17.4159527       2.36578798    
 H    25.7433987       16.8645096       3.05501723    
 H    26.1441154       17.8475685       1.94128883    
 O    27.3479347       18.8163853       1.04841721    
 H    28.1294460       18.8078003      0.502609670    
 H    26.7427940       19.4580173      0.639691830    
 O    23.2457180       18.8772697       1.46782136    
 H    22.5014286       18.3071461       1.29546738    
 H    23.9515724       18.3105145       1.82327139    
          15
 Ord_Energy   -35.1632690    
 O    22.8531075       17.8902855       2.06474686    
 H    22.1325645       17.4432106       2.50026202    
 H    23.3650932       18.3232307       2.76826048    
 O    24.9186230       17.8294582      0.250390887    
 H    24.6075706       18.1070786     -0.607621014    
 H    24.1328239       17.8029480      0.822041869    
 O    24.6276913       19.0354424       3.84093881    
 H    24.8069229       19.9632339       3.63446164    
 H    25.4140949       18.5868511       3.51143193    
 O    25.9170074       21.2657719       2.70990920    
 H    26.3557568       20.4673004       2.37708545    
 H    26.6198807       21.8541260       2.97667575    
 O    26.8833504       18.6913548       1.95686138    
 H    26.2354126       18.3785114       1.30201960    
 H    27.6598377       18.1500149       1.84454381    
          15
 Ord_Energy   -35.1111832    
 O    25.3912506       17.3305836       2.58189440    
 H    25.8196564       17.9912891       2.01918435    
 H    25.3418922       16.5354710       2.05523324    
 O    23.6314964       20.0071354      0.565679073    
 H    22.7868233       20.2073441      0.173845977    
 H    23.4590225       19.8226643       1.50615323    
 O    25.8944550       21.0694790       3.40755010    
 H    26.0767212       21.9953842       3.26093936    
 H    26.1729698       20.6164684       2.59889936    
 O    23.5896416       19.4220333       3.24076319    
 H    24.0611019       18.5793571       3.18359447    
 H    24.2608852       20.0637779       3.51139760    
 O    26.2813072       19.5583191      0.983144939    
 H    25.3616810       19.7409439      0.716623187    
 H    26.8199997       19.6580639      0.203147426    
          15
 Ord_Energy   -35.0975571    
 O   -8.84288120      -4.06166172      -20.0887585    
 H   -9.30572224      -4.83809233      -20.4508381    
 H   -9.30115032      -3.29772830      -20.4261913    
 O   -7.64757586      -5.65447760      -18.2343922    
 H   -8.02083874      -4.99228907      -18.8445816    
 H   -7.04552937      -5.19057274      -17.6592064    
 O   -9.93405724      -6.47638750      -20.7851295    
 H   -9.09821224      -6.95399284      -20.8781738    
 H   -10.2611322      -6.71798325      -19.9072380    
 O   -7.29240084      -7.47393847      -20.4493446    
 H   -7.28503895      -6.93073082      -19.6485043    
 H   -6.49300861      -7.24774647      -20.9209366    
 O   -10.2156172      -6.92891312      -18.0060558    
 H   -10.6126366      -6.86877394      -17.1404305    
 H   -9.33328152      -6.54033279      -17.9205685    
          15
 Ord_Energy   -34.4689178    
 O    23.4284248       17.4368248       3.21702576    
 H    22.7967644       17.7412014       3.86476135    
 H    22.9535656       16.7988949       2.66151428    
 O    24.0713120       17.8742924      0.428465784    
 H    23.4758415       17.1205330      0.337930501    
 H    24.0153198       18.0910244       1.36753905    
 O    25.1280079       15.0340385       2.31352115    
 H    24.9996910       15.7353630       2.95811605    
 H    25.7200966       15.4095488       1.64267695    
 O    26.4676838       16.4510345      0.341195792    
 H    25.7047539       17.0462856      0.263554960    
 H    27.1119308       16.7628956     -0.288306236    
 O    22.6212635       15.4883308       1.30377400    
 H    22.0933495       14.7248659       1.08861351    
 H    23.4943104       15.1540890       1.57749534    
          15
 Ord_Energy   -34.1042442    
 O    24.1864567       17.3087349      -1.40611804    
 H    24.8634129       16.7850647     -0.949824810    
 H    24.2184200       17.0425186      -2.32148266    
 O    25.1658859       17.5111809       2.30232620    
 H    24.5448627       16.7961140       2.49139595    
 H    24.6476612       18.1911564       1.84644008    
 O    23.6346264       19.1415138      0.622406125    
 H    23.7502270       18.5760632     -0.157845184    
 H    23.5638714       20.0337296      0.292073816    
 O    25.9759579       15.9328117      0.240621433    
 H    25.8562393       16.5553207      0.981556535    
 H    26.8526783       15.5693121      0.327462345    
 O    23.6445980       15.1178904       1.81600010    
 H    22.8632545       15.3503265       1.31469142    
 H    24.3700008       15.1510067       1.17842185    
          15
 Ord_Energy   -33.6685257    
 O    36.6649590       1.69446146      -1.95305538    
 H    36.0321503       2.28981519      -1.56088948    
 H    36.8510857       2.03708911      -2.84738731    
 O    40.0075417       1.76379406      -4.20895624    
 H    39.9120140       1.52758956      -3.27245831    
 H    40.6145439       1.12539494      -4.57622576    
 O    37.2633743       2.18511176      -4.55581427    
 H    38.2290764       2.10943794      -4.57550240    
 H    36.9214211       1.29505622      -4.71094465    
 O    36.1540833     -0.380903155      -3.93879414    
 H    35.2803268     -0.766732872      -3.91997576    
 H    36.2421036      0.102023147      -3.10569906    
 O    39.4029579       1.14541030      -1.55247033    
 H    38.4462166       1.29824376      -1.56729114    
 H    39.6848183       1.32723522     -0.659094572    
          15
 Ord_Energy   -32.3329124    
 O    24.2167797       21.6194229      0.798864722    
 H    23.7668343       21.9960804       1.54998648    
 H    24.8149643       20.9417496       1.16106081    
 O    27.8605595       20.6054115     -0.339132160    
 H    27.2377911       21.2337780     -0.740765870    
 H    28.4005527       20.2824192      -1.05567646    
 O    25.6948891       16.9307137       1.50790894    
 H    25.1318760       16.5338612      0.842685282    
 H    25.8496552       16.2430706       2.15552688    
 O    26.0535774       19.7807217       1.63486266    
 H    26.7746296       19.9941921       1.02425575    
 H    25.9571972       18.8227997       1.61864924    
 O    25.8886375       22.3136044      -1.28525293    
 H    25.7550411       23.2254791      -1.52985036    
 H    25.2261963       22.1221123     -0.599869013    
          15
 Ord_Energy   -31.7643223    
 O    24.0411110       5.64635944       1.04408240    
 H    24.1301689       5.54934740       2.00133371    
 H    24.9244061       5.83624458      0.730184913    
 O    21.6574631       6.72175121       5.65863132    
 H    21.3980885       5.84280539       5.92279720    
 H    22.1868172       6.61321259       4.85138273    
 O    22.9082165       9.02030849       6.54556942    
 H    22.2611465       9.67526150       6.79524755    
 H    22.4044380       8.21736526       6.33101130    
 O    24.8412685       8.70691776       4.59899998    
 H    25.7059441       8.91763592       4.94149113    
 H    24.2153435       8.90820408       5.31501198    
 O    23.3617630       6.67280865       3.47652793    
 H    23.9525547       7.37733650       3.78752851    
 H    23.2261238       6.81453037       2.53506899    
          15
 Ord_Energy   -31.7282162    
 O    23.5601234       19.7818775       2.20390344    
 H    24.2996521       19.1758614       2.37590909    
 H    23.7802467       20.5972672       2.64739394    
 O    23.0152569       18.9272289     -0.372521311    
 H    23.1199474       19.3008614      0.518359959    
 H    22.0820732       18.7582417     -0.476273835    
 O    27.6944351       16.8206825       3.78142786    
 H    27.4192581       17.5736485       3.24208951    
 H    27.9103088       17.1927319       4.63560629    
 O    25.3331165       17.4228077     -0.292043775    
 H    24.5074501       17.9149246     -0.434197754    
 H    25.7730942       17.3938503      -1.13745427    
 O    25.6550179       17.9785900       2.37944221    
 H    25.8487968       17.1864319       2.88816071    
 H    25.6344624       17.7162704       1.44457948    
          15
 Ord_Energy   -31.7043648    
 O    24.0788269       18.1226578       3.42180634    
 H    24.5477161       17.5973568       4.06644773    
 H    24.6683559       18.8635654       3.20688272    
 O    24.3580818       16.0870171      -1.15141428    
 H    24.9016743       15.9223347      -1.91868031    
 H    23.5811749       16.5690174      -1.47802782    
 O    22.2855587       17.9396992      -1.51356530    
 H    22.7663937       18.2515411     -0.729993224    
 H    21.3615894       17.9557667      -1.27372110    
 O    25.6089344       20.0542240       2.08853388    
 H    25.1867714       19.5414524       1.38052630    
 H    25.4946938       20.9709587       1.84807694    
 O    24.0710831       18.2221355      0.628517449    
 H    23.9076977       17.9904099       1.55355704    
 H    24.3689346       17.4223480      0.172892734    
          15
 Ord_Energy   -31.5898342    
 O    8.85529041      -1.84983301      -15.8761597    
 H    7.96271944      -2.10792708      -16.1577282    
 H    9.00353622     -0.982668042      -16.2465992    
 O    3.57940650      -1.99055469      -16.4628410    
 H    3.11683893      -1.37954378      -17.0317020    
 H    3.68889356      -2.80316401      -16.9828339    
 O    7.64775562      -2.88471222      -13.5706253    
 H    8.15748215      -3.52253318      -13.0763884    
 H    8.26689148      -2.48632979      -14.2036161    
 O    6.21372604      -2.77881956      -15.9664106    
 H    6.47837591      -2.91264129      -15.0457449    
 H    5.36581039      -2.31340766      -15.9641094    
 O    4.60194683      -4.29324532      -17.6862087    
 H    4.57987356      -5.23214006      -17.5154266    
 H    5.33759832      -3.94594169      -17.1563282    
          15
 Ord_Energy   -31.5610447    
 O    5.08904409      -9.64830589      -24.8190708    
 H    4.12556648      -9.70654011      -24.7497005    
 H    5.37421560      -10.2862291      -25.4885654    
 O    6.29802847      -11.7749243      -26.1737976    
 H    6.66116238      -11.8273716      -25.2748394    
 H    6.06817961      -12.6700659      -26.4124012    
 O    2.34824705      -9.09381199      -24.8196030    
 H    2.76410913      -8.24186802      -25.0293503    
 H    1.61927652      -9.18272209      -25.4293060    
 O    4.18142319      -7.05150032      -25.3731232    
 H    4.60275698      -6.35152960      -24.8794861    
 H    4.72857952      -7.84076881      -25.2318840    
 O    6.89037848      -11.3278790      -23.4743099    
 H    7.58076239      -10.8868771      -22.9843655    
 H    6.24596119      -10.6384315      -23.7016029    
          15
 Ord_Energy   -31.0003357    
 O   -8.41323185      -15.2562170       2.63373995    
 H   -8.89641953      -14.5819063       3.10685349    
 H   -8.63346481      -15.1309681       1.69905698    
 O   -11.2923088      -17.7446880      0.475231230    
 H   -11.0116520      -16.9096661       8.97263288E-02
 H   -10.8087130      -18.4250107      -1.61707401E-02
 O   -8.85978508      -17.9271069       1.86060965    
 H   -9.81722546      -17.8805256       1.71447301    
 H   -8.61984730      -17.1377792       2.36284471    
 O   -9.06089497      -15.7784920      -8.96372721E-02
 H   -8.88866806      -16.6252136      0.348877937    
 H   -8.60029125      -15.8217087     -0.925332308    
 O   -9.22574520      -19.5096321     -0.403749764    
 H   -8.88197803      -19.1435204      0.426479667    
 H   -9.07386971      -20.4509525     -0.352765262    
          15
 Ord_Energy   -30.6575642    
 O    4.39516306      -6.40719223      -4.34596634    
 H    4.77671432      -6.37709188      -3.46714354    
 H    4.40344572      -5.48799515      -4.66979647    
 O    1.88879883      -5.59274340      -3.25683045    
 H    1.12166774      -5.69396067      -3.81669998    
 H    2.61052370      -6.04435825      -3.71729612    
 O    4.71043301      -3.76381993      -5.03763390    
 H    5.65999985      -3.91583920      -4.96856737    
 H    4.40089560      -3.44895673      -4.17514896    
 O    3.46944118      -3.37415147      -2.55921388    
 H    3.09409165      -2.81704354      -1.88208842    
 H    2.82398319      -4.08215523      -2.71130443    
 O    7.11258316      -5.39467907      -5.04170465    
 H    6.36160231      -6.00002909      -5.01905441    
 H    7.58520889      -5.61031771      -5.84453344    
