          21
 Ord_Energy   -57.8319664    
 O    32.9785347       2.47792697      -6.97352362    
 H    32.1806602       2.85497546      -6.55944252    
 H    32.8864021       2.60883498      -7.91253853    
 O    33.7763748      0.588865280      -5.04061556    
 H    33.4611588       1.13189435      -5.78154945    
 H    34.0771370     -0.234655276      -5.41661501    
 O    29.4817715       1.35507023      -4.58200788    
 H    28.7119846       1.07264745      -4.09540939    
 H    30.2398758       1.20727551      -3.99174929    
 O    31.7936611       1.22622347      -3.07037520    
 H    31.9690533       2.16996717      -2.96573281    
 H    32.4792175      0.899961531      -3.66734314    
 O    34.5903778       3.34339523      -4.74311209    
 H    34.2045059       3.36090350      -5.62828350    
 H    34.6538200       2.40015364      -4.55031681    
 O    30.8828506       3.51472712      -5.62181950    
 H    31.2674732       3.84614348      -4.80147123    
 H    30.2762489       2.80669689      -5.35792875    
 O    32.3974495       4.04858446      -3.22366667    
 H    33.2369919       3.90316296      -3.69132018    
 H    32.5460052       4.76399660      -2.61105204    
          21
 Ord_Energy   -57.5936966    
 O    31.0308933       3.52473974      -3.15031385    
 H    31.6440563       2.82474852      -2.88202596    
 H    30.2756157       3.02746582      -3.48775530    
 O    32.1644554       4.67093897      -5.32993603    
 H    31.7534714       4.34262657      -4.50951004    
 H    31.7744274       5.52063179      -5.51524210    
 O    29.6631279       1.34998333      -4.42692900    
 H    30.2079067       1.56070101      -5.20509624    
 H    28.9088459      0.864473045      -4.74862671    
 O    31.4253330       2.06991553      -6.41565228    
 H    32.2326660       1.58780646      -6.19228029    
 H    31.6261101       2.99586940      -6.23466921    
 O    34.7100830       3.55697274      -5.10098171    
 H    35.2056198       4.03463125      -4.43962002    
 H    33.8736305       4.03673506      -5.20727301    
 O    32.2184219      0.999374270      -2.99370646    
 H    31.3380642      0.883447051      -3.37342334    
 H    32.8282928      0.891453385      -3.73361230    
 O    33.8512497      0.969273984      -5.38466167    
 H    34.2558861       1.84846652      -5.28929424    
 H    34.5312500      0.388614476      -5.71588945    
          21
 Ord_Energy   -57.5424919    
 O    33.9702606       4.12692070      -5.46295691    
 H    33.1053314       3.84976578      -5.81293344    
 H    34.4497948       4.48629379      -6.20394659    
 O    34.1392822       2.70040798      -3.16840863    
 H    34.1566963       3.20283985      -4.00341702    
 H    35.0452499       2.56692314      -2.90399790    
 O    32.3453712      0.549602687      -6.79258394    
 H    32.0966072     -0.309002370      -7.12449169    
 H    32.3907967      0.457954198      -5.82610035    
 O    32.3050957      0.624257803      -4.02322435    
 H    31.4921341       1.13916361      -3.93765497    
 H    33.0036316       1.20198154      -3.69349575    
 O    31.8390236       4.01844740      -2.26293850    
 H    32.6742668       3.56704044      -2.46061301    
 H    32.0295830       4.95223331      -2.32786036    
 O    31.5637302       3.18691063      -6.33436394    
 H    30.9708462       3.04328704      -5.58757162    
 H    31.8014030       2.30206943      -6.65033054    
 O    30.1692638       2.55009723      -3.88037491    
 H    30.6688538       3.10784674      -3.26050544    
 H    29.2743416       2.51156664      -3.55340624    
          21
 Ord_Energy   -57.4698372    
 O    30.1214695       2.92771268      -5.84035873    
 H    30.5077896       3.56553793      -5.22007990    
 H    30.2936077       3.27420306      -6.71345186    
 O    30.9553394      0.592246711      -4.66417503    
 H    30.2972107      -9.68219936E-02  -4.70106506    
 H    30.5807934       1.36182916      -5.12594366    
 O    31.4519062       4.47827291      -3.93822217    
 H    31.2743530       5.22518349      -3.37350583    
 H    31.6560879       3.72443891      -3.35507154    
 O    32.0842667       2.21507096      -2.57681704    
 H    33.0374603       2.07210183      -2.65131807    
 H    31.6738911       1.54998398      -3.14459729    
 O    33.6476288      0.925162852      -5.60893726    
 H    32.7408409      0.692533612      -5.37429380    
 H    33.6394348       1.87661505      -5.79019308    
 O    33.8833580       3.73690152      -5.33054829    
 H    33.0881729       4.11867380      -4.94013023    
 H    34.3765297       3.37626195      -4.58390379    
 O    34.8014297       1.81440365      -3.28808951    
 H    35.6430550       1.43381870      -3.05298710    
 H    34.4948196       1.34078109      -4.08189058    
          21
 Ord_Energy   -57.3673439    
 O    31.5693436       1.91814804      -2.18010235    
 H    31.0108643       2.36982727      -2.82513213    
 H    32.3237419       2.50418687      -2.04798794    
 O    33.6671410      0.547449589      -3.47932434    
 H    33.5308342      0.648669362      -4.42847633    
 H    32.8220901      0.771198273      -3.06063247    
 O    34.2351036       3.09031463      -2.58785605    
 H    34.2210617       2.16023469      -2.87515259    
 H    35.0012398       3.19068885      -2.02967954    
 O    33.1603851       1.32561517      -6.22690773    
 H    33.1484337       2.23512387      -5.87679863    
 H    33.7742386       1.31824970      -6.95611572    
 O    32.9448166       3.75760102      -5.02666759    
 H    33.4320641       3.69651270      -4.19392490    
 H    32.0083923       3.75716019      -4.78962183    
 O    30.2114201       3.21891189      -4.35133362    
 H    30.1758003       2.42209411      -4.90790653    
 H    29.3770161       3.66744804      -4.45986509    
 O    30.4202919      0.939432085      -5.86527300    
 H    30.2391415       2.70136204E-02  -5.64982557    
 H    31.3646717      0.980723619      -6.08274317    
          21
 Ord_Energy   -57.1903267    
 O    32.0433197       3.56034136     -0.954110324    
 H    32.0973320       3.71045113      -1.44028598E-02
 H    31.9846458       2.59705305      -1.07075953    
 O    30.3909092       2.10541177      -3.92793465    
 H    30.8916817       2.92987537      -3.97223425    
 H    30.6702747       1.70066082      -3.09624863    
 O    32.3434067       4.17557526      -3.61092782    
 H    32.5199165       5.09657621      -3.78190136    
 H    32.2596626       4.08303499      -2.64550424    
 O    31.4106483      -1.48631060      -3.03259516    
 H    31.8606663      -2.32452583      -3.11225295    
 H    31.5041466      -1.05305099      -3.89425731    
 O    31.6609802      0.150638744      -5.34839869    
 H    31.1154671      0.854721606      -4.95388126    
 H    31.4047184       8.77316371E-02  -6.26446009    
 O    31.9779644      0.941349208      -1.77458966    
 H    32.7007828       1.13920927      -2.39138412    
 H    31.7207642       3.17635983E-02  -1.96920371    
 O    33.7147217       1.62169182      -3.86036944    
 H    33.3908768       2.53017282      -3.91514111    
 H    33.2011719       1.11884797      -4.50434828    
          21
 Ord_Energy   -57.1900558    
 O    17.1157131       2.01135874      -5.12053728    
 H    17.4943619       2.51990962      -5.84812117    
 H    16.4434719       2.59077096      -4.72759390    
 O    18.7778091       3.25340819      -3.06915426    
 H    18.4583778       2.70785046      -3.79986072    
 H    18.1941528       3.03129673      -2.33261156    
 O    16.6827793      0.215500996      -3.08977652    
 H    16.8527908      0.703649342      -3.91303682    
 H    16.6469231     -0.705997229      -3.33048797    
 O    17.8975201       5.51179790      -4.32494259    
 H    18.3141079       4.79151106      -3.81840110    
 H    18.2544193       6.32729769      -3.98379469    
 O    18.0863323       4.05171394      -6.76164579    
 H    18.0358391       4.66632986      -6.01423502    
 H    17.7413158       4.52757931      -7.51398134    
 O    16.5794239       2.40634608      -1.44234753    
 H    16.5760708       1.56030035      -1.92385888    
 H    16.3029232       2.21324182     -0.550782502    
 O    15.5432034       3.86584949      -3.73665762    
 H    15.7652321       3.49897480      -2.87103248    
 H    16.1761036       4.57753897      -3.89225554    
          21
 Ord_Energy   -57.1900482    
 O    38.9253387      -4.87717009      -7.48773813    
 H    38.8928070      -4.01487398      -7.08303928    
 H    38.0014114      -5.15242815      -7.61241817    
 O    37.9590874      -8.41941738      -7.11880970    
 H    38.8124313      -8.15936470      -7.48848581    
 H    37.4227371      -7.61727762      -7.16887760    
 O    40.0699081      -7.12817144      -8.55893326    
 H    39.7841301      -6.28001356      -8.17602348    
 H    41.0153732      -7.07319736      -8.66712952    
 O    34.3489037      -7.80967999      -8.27843666    
 H    34.9483833      -8.50669384      -8.58457184    
 H    33.5814629      -7.85911989      -8.84419441    
 O    36.4215050      -9.60860825      -9.03554630    
 H    36.5197945      -10.5545778      -9.10095978    
 H    36.9914513      -9.31911278      -8.30049801    
 O    36.5197983      -6.06568956      -8.06852818    
 H    36.8885651      -6.35643005      -8.91794872    
 H    35.6490555      -6.47849894      -8.01590157    
 O    37.7253838      -7.29297686      -10.2747250    
 H    38.5994644      -7.31026840      -9.86376858    
 H    37.3208084      -8.14514160      -10.0712299    
          21
 Ord_Energy   -57.1859131    
 O    33.0246124       4.67217112      -3.50582457    
 H    33.0566940       3.91707039      -2.90560102    
 H    32.0812187       4.85604477      -3.62663388    
 O    33.6224442       3.28862286      -5.78144550    
 H    33.5209808       3.88362765      -5.01737452    
 H    33.9442978       3.82096386      -6.50348616    
 O    30.2634029       4.58625984      -4.01829767    
 H    30.3962746       3.68662810      -4.35661316    
 H    29.4493408       4.89526463      -4.40781832    
 O    31.1862640       2.10004973      -4.88870764    
 H    31.2561188       1.15039873      -5.06234694    
 H    31.9451542       2.50460744      -5.33317089    
 O    34.2926216      0.820731819      -4.44586134    
 H    34.2696114       1.60865319      -5.00418997    
 H    33.9571724       1.12021863      -3.59130287    
 O    32.6387138       2.02966213      -2.41843534    
 H    32.0401917       2.01609039      -3.18205762    
 H    32.1347160       1.70264828      -1.67691338    
 O    31.9834137     -0.507116854      -5.24130821    
 H    32.8683434     -0.185539871      -5.00018787    
 H    32.1151276      -1.34674549      -5.67269516    
          21
 Ord_Energy   -57.1370087    
 O    32.0711555      0.381665349      -1.44814897    
 H    31.2583294      0.629376650      -1.91387606    
 H    31.8099899      0.188121334     -0.550854623    
 O    33.5499229       2.09409142      -3.07476282    
 H    33.0564346       1.86612988      -3.87881517    
 H    33.2643127       1.45625341      -2.40882516    
 O    31.7724495       1.73055816      -5.20258570    
 H    31.0368614       1.53843844      -4.60851002    
 H    31.7169838       2.67530608      -5.39613819    
 O    34.5234222       4.30420303      -4.38049650    
 H    35.4639778       4.30160856      -4.53649902    
 H    34.3386002       3.51740384      -3.84024596    
 O    31.9602890       4.63503265      -5.30728626    
 H    31.8654232       5.33371401      -5.94874525    
 H    32.9006042       4.61355162      -5.05651712    
 O    31.2636299       3.85324526      -2.64584422    
 H    32.0970535       3.37154317      -2.56037450    
 H    31.3360214       4.30540085      -3.49604487    
 O    29.9177437       1.49519408      -2.93403339    
 H    30.2693844       2.39051867      -2.78004766    
 H    28.9674072       1.56342161      -2.90359640    
          21
 Ord_Energy   -57.0709991    
 O    34.0418129       4.36105490      -3.29267025    
 H    34.7984734       4.93635798      -3.35149980    
 H    34.3840332       3.46323228      -3.12458181    
 O    32.1095695       1.16056824      -2.09464788    
 H    31.7842712       2.06332159      -1.98940277    
 H    31.8943100      0.909414947      -3.00104189    
 O    31.7555790      0.764953434      -4.98050833    
 H    30.9817657      0.455243349      -5.44403076    
 H    31.7489510       1.73547781      -5.04753208    
 O    31.5292053       4.00445414      -2.09642172    
 H    31.3096409       4.63400269      -1.41448915    
 H    32.4261169       4.22555304      -2.39891839    
 O    31.7805538       3.50380945      -4.89563131    
 H    32.6761513       3.81550813      -4.71684408    
 H    31.3124046       3.70035934      -4.07438707    
 O    34.5254974      0.210789695      -5.12575722    
 H    34.6818237     -0.719012678      -5.27617407    
 H    33.5630913      0.323616654      -5.14280272    
 O    34.7458763       1.80883443      -2.82811999    
 H    33.9295235       1.49858832      -2.41062140    
 H    34.8562546       1.25808358      -3.61449647    
          21
 Ord_Energy   -57.0433693    
 O    32.7681923       4.20451117      -5.32485151    
 H    32.3260651       4.62041092      -4.57035732    
 H    33.5711327       3.80600882      -4.96278524    
 O    31.0684147       2.23046446      -6.01211452    
 H    30.4035358       2.55370951      -6.61313200    
 H    31.6828976       2.96956015      -5.84447908    
 O    31.4139729       4.91187096      -2.98620439    
 H    30.7107048       5.38208818      -2.54630876    
 H    31.1941128       3.96880770      -2.90575218    
 O    30.9081879       2.18408298      -3.10856223    
 H    31.7037811       1.66506660      -2.94003248    
 H    30.7789459       2.13977957      -4.06415987    
 O    32.7484779       4.70790602E-02  -5.68620014    
 H    32.1211891      0.760346711      -5.88652420    
 H    33.3308945      -8.95981956E-03  -6.44067669    
 O    34.8647385       2.89676189      -3.95894504    
 H    35.2606049       3.34588218      -3.21412683    
 H    34.4033585       2.13138366      -3.58689547    
 O    33.3586006      0.647443414      -3.09047437    
 H    33.5196648     -0.132686913      -2.56606174    
 H    33.1684608      0.341248393      -3.99472642    
          21
 Ord_Energy   -57.0332336    
 O    32.8639526       3.51032925      -7.24282551    
 H    33.3222847       2.87803173      -6.66218853    
 H    33.3789825       3.56553864      -8.04321671    
 O    31.1095371       3.54558849      -3.45079875    
 H    30.6000118       3.70125651      -2.65915370    
 H    31.4101276       2.62366676      -3.41169810    
 O    31.9596119      0.875960946      -3.63843918    
 H    32.0980186      0.120436847      -3.07364941    
 H    31.3483162      0.595192730      -4.34315252    
 O    30.2290096      0.375815958      -5.65886116    
 H    29.7691231     -0.139294788      -6.31505680    
 H    30.1635132       1.30411375      -5.94394493    
 O    30.2974815       3.05467987      -6.18166065    
 H    31.1109810       3.25899076      -6.66355944    
 H    30.4361248       3.38533926      -5.28593683    
 O    34.0806007       2.05304384      -5.24780560    
 H    33.4581413       1.54362535      -4.71724749    
 H    34.1013031       2.93446994      -4.84619379    
 O    33.4598694       4.72827625      -4.60811186    
 H    33.2258034       4.68727207      -5.54252052    
 H    32.6543312       4.47831917      -4.13662720    
          21
 Ord_Energy   -56.9344711    
 O    29.3025684       2.72485566      -3.66454029    
 H    28.3973064       2.67911482      -3.37038565    
 H    29.3249149       2.35882497      -4.56806135    
 O    32.0078201       3.22441936      -6.77486610    
 H    32.5903664       3.01486754      -6.02940655    
 H    32.5688591       3.28294063      -7.54484177    
 O    30.8445415     -0.659017682      -5.28450775    
 H    31.1694031     -0.172239020      -4.50863695    
 H    30.7336960      -1.56212282      -4.99951124    
 O    31.5880890       1.02070773      -3.21200252    
 H    32.2958870       1.60454726      -3.50980616    
 H    30.7951221       1.57182121      -3.18739724    
 O    31.1936913       4.70465469      -4.32967091    
 H    30.4745197       4.14438820      -4.00324631    
 H    31.1974449       4.58188391      -5.28509283    
 O    29.6608276       1.70287967      -6.15318441    
 H    29.9956074      0.810319841      -5.97843885    
 H    30.4083080       2.19721842      -6.51105404    
 O    33.3582077       3.03885555      -4.27003813    
 H    32.6721649       3.71457219      -4.12333393    
 H    34.1607437       3.37220788      -3.87735224    
          21
 Ord_Energy   -56.8899803    
 O    30.4948311      0.979090869      -3.18255687    
 H    29.7769394      0.843786359      -2.56840253    
 H    30.3455162       1.84549582      -3.59072924    
 O    33.3375244      0.877047539      -2.92885208    
 H    32.3731499      0.819763899      -2.92642188    
 H    33.5923157      0.932687759      -3.85847449    
 O    33.7917671       3.50254989      -2.17939019    
 H    34.4832878       3.59199810      -1.52909434    
 H    33.6815033       2.54774809      -2.32311821    
 O    33.8056335       1.49090707      -5.71359110    
 H    33.6045876       2.40917921      -5.45586872    
 H    34.6032867       1.51886690      -6.23437691    
 O    33.0252914       3.93746543      -4.81330061    
 H    32.0631905       3.88186479      -4.80000877    
 H    33.3082123       3.93771648      -3.88613057    
 O    30.2226181       3.21288919      -4.91899300    
 H    29.5213184       3.69222331      -5.35244751    
 H    30.4644470       2.47597122      -5.50813198    
 O    31.0776806      0.881051362      -6.07562637    
 H    32.0399399      0.988633454      -6.08244324    
 H    30.8725986      0.466690451      -5.23039389    
          21
 Ord_Energy   -56.8169594    
 O    33.4488106       1.16343784      -5.13355303    
 H    33.9977570      0.719798744      -4.47731495    
 H    32.5440750       1.10586929      -4.79105520    
 O    33.6165962       1.86045158      -1.10907698    
 H    33.1482964       2.57299137      -1.56588721    
 H    32.9589729       1.17054904     -0.965352952    
 O    32.2051315     -0.622153223      -1.77245009    
 H    33.0773926     -0.608907819      -2.19641829    
 H    32.0389023      -1.52906609      -1.52671981    
 O    32.1259651       3.71077347      -2.63608432    
 H    32.6663437       3.86221075      -3.43153262    
 H    31.6818638       4.53256226      -2.44542146    
 O    31.0513496       1.21180952      -3.67618108    
 H    31.2596474       2.07020664      -3.28674293    
 H    31.2719383      0.557240665      -3.00202918    
 O    33.6338501       3.87718964      -4.89637089    
 H    33.6383629       2.92156267      -5.08077478    
 H    33.8462448       4.30674124      -5.71997404    
 O    34.7564697       4.66183387E-02  -2.80963326    
 H    35.6749077     -0.153184533      -2.64971423    
 H    34.5278015      0.794858098      -2.22935963    
          21
 Ord_Energy   -56.7966232    
 O    31.8046837       3.66787028      -2.62627053    
 H    31.1838169       3.18029618      -2.08742571    
 H    31.3863983       3.74858546      -3.49726200    
 O    33.6058464      -3.56335789E-02  -2.58667040    
 H    33.9292107      0.865222752      -2.73639894    
 H    34.3826294     -0.566518426      -2.42324042    
 O    34.2928581       2.65482426      -3.14497066    
 H    33.4409714       3.05798554      -2.90253997    
 H    34.9694633       3.28292847      -2.90594459    
 O    31.8962173      -3.83262485E-02  -4.83830643    
 H    32.3892784      0.634782612      -5.32842875    
 H    32.4031677     -0.185341746      -4.02991819    
 O    33.1856308       2.27422261      -5.81384754    
 H    32.3989410       2.82646108      -5.72843456    
 H    33.6937599       2.42555022      -5.00760078    
 O    30.6815910       3.63592601      -5.18301725    
 H    30.1740513       4.19756079      -5.76215315    
 H    30.1868439       2.80138326      -5.09095764    
 O    29.5042686       1.22618675      -4.81801510    
 H    30.3162308      0.687491059      -4.79838085    
 H    28.7890968      0.621148705      -4.99086237    
          21
 Ord_Energy   -56.7731895    
 O    33.3201675       3.67790771      -4.92665052    
 H    32.5693283       4.05519104      -5.39951611    
 H    33.2312164       2.72172499      -5.01890707    
 O    30.6791859       1.33557105      -3.27265596    
 H    31.4622688       1.09340739      -3.79271531    
 H    30.4669952      0.579555511      -2.73053741    
 O    31.2615147      0.756839812      -7.20163822    
 H    30.5657787       1.30364144      -6.79571772    
 H    31.0380287      0.678995848      -8.12432766    
 O    29.5462093       2.30041075      -5.75345039    
 H    29.8209076       3.22740650      -5.73791122    
 H    29.7171593       1.96706748      -4.86425495    
 O    31.4357605       4.08939075      -2.87377667    
 H    32.2791672       4.00390577      -3.34283614    
 H    31.0982819       3.18779206      -2.80650735    
 O    32.8288918      0.805358708      -4.99715996    
 H    32.3397827      0.729260981      -5.83614254    
 H    33.5777130      0.218159109      -5.05772400    
 O    30.6316185       4.87184906      -5.38660383    
 H    30.7947636       4.71923590      -4.43938732    
 H    30.4380436       5.80069637      -5.48102427    
          21
 Ord_Energy   -56.7506294    
 O    33.1478233       4.78413486      -2.71175194    
 H    33.4094772       3.92179894      -2.35677218    
 H    33.6556320       5.43149996      -2.22852159    
 O    33.7203102       2.04321289      -2.23810244    
 H    34.2282600       2.01200867      -3.06268859    
 H    32.8162384       1.80679393      -2.49439096    
 O    33.2331200     -0.530324519      -4.38058472    
 H    32.4190216      -5.45148216E-02  -4.17168283    
 H    33.5991859     -0.802308559      -3.52657580    
 O    31.2645626       1.40409470      -3.54599118    
 H    30.3222523       1.47940612      -3.42507362    
 H    31.5277672       2.12252069      -4.14854956    
 O    34.7255058       1.70233309      -4.88822222    
 H    34.2610893      0.847967505      -4.83469582    
 H    35.5416641       1.54179299      -5.35336113    
 O    32.3939590       3.39151645      -5.04408550    
 H    33.2254410       2.92745113      -5.20555496    
 H    32.5924034       4.04488468      -4.35776377    
 O    34.2898521     -0.699701309      -1.77249789    
 H    34.1737099      0.260943383      -1.73043001    
 H    34.2906418      -1.00345564     -0.867956638    
          21
 Ord_Energy   -56.7412148    
 O    32.3070183       4.24709272      -3.69066930    
 H    31.3722973       4.00080538      -3.61893249    
 H    32.8008804       3.59391427      -3.18181443    
 O    32.9756851       3.59987736      -6.23841763    
 H    32.9131775       4.33559513      -6.84104490    
 H    32.7328529       3.93645430      -5.35600233    
 O    29.7030010       3.28264499      -3.82171893    
 H    28.8018818       3.51033521      -4.03440714    
 H    29.9951630       2.66919875      -4.51685858    
 O    30.8817787       1.63884985      -5.71033859    
 H    31.3102760       1.04050446      -5.08096838    
 H    31.5755882       2.22083306      -6.04071617    
 O    34.9452896       1.91263485      -5.22964859    
 H    34.9309120       1.09203947      -5.71885586    
 H    34.3298721       2.50611067      -5.68853760    
 O    33.9397087       2.07589960      -2.68652439    
 H    34.6153297       2.13265109      -2.01587176    
 H    34.3999023       2.02415657      -3.54278922    
 O    32.0920868      0.149908900      -3.64473271    
 H    31.5288162     -0.183412760      -2.94851589    
 H    32.6918640      0.777850449      -3.21691346    
          21
 Ord_Energy   -56.7245445    
 O    31.4167442      0.379273206      -2.29911256    
 H    30.7583923      -4.69212718E-02  -1.75874043    
 H    30.9365292      0.878538549      -2.98570776    
 O    33.7009468      -6.90371990E-02  -3.90901828    
 H    34.1632080     -0.887320757      -3.74356318    
 H    32.9172821      -7.62272924E-02  -3.33618331    
 O    33.3789711       2.46226001      -2.51055598    
 H    32.6814194       1.91282070      -2.13037038    
 H    33.8584709       1.84812403      -3.07853556    
 O    33.0287552       3.54541063      -6.54395390    
 H    32.8395081       4.20189476      -7.21081448    
 H    32.6750221       3.89984107      -5.71467447    
 O    31.9844227       4.28150702      -4.02261019    
 H    32.5330925       3.70667958      -3.46100307    
 H    31.8597813       5.09406948      -3.53946543    
 O    30.3535709       1.86742830      -4.29341984    
 H    30.8417511       1.47478867      -5.03485298    
 H    30.6832256       2.76972651      -4.22461462    
 O    32.1590118      0.895643175      -6.15873718    
 H    32.7909241      0.513257802      -5.53855276    
 H    32.5271683       1.75252318      -6.41764021    
          21
 Ord_Energy   -56.7200317    
 O    28.9062672       2.60572910      -3.08436823    
 H    28.0411911       2.56345916      -2.68760943    
 H    29.5442772       2.55594087      -2.35050941    
 O    30.9184265       2.58385158      -1.25294650    
 H    31.5277805       1.84371400      -1.35754037    
 H    31.3955727       3.35303855      -1.59789538    
 O    32.9538307      0.702503860      -1.96328413    
 H    33.6180115       1.35000730      -2.24570465    
 H    33.4351082      -1.08415000E-02  -1.55030859    
 O    34.5464783       2.63404512      -3.29056048    
 H    35.4076691       2.77676439      -3.67346573    
 H    33.9778671       2.28020287      -3.99845695    
 O    32.6228409       1.48734725      -4.84053326    
 H    31.9212132       2.14360571      -4.95700741    
 H    32.3770332      0.969545782      -4.06684351    
 O    32.3628082       4.48409700      -2.73637509    
 H    33.1943245       4.01579189      -2.87512445    
 H    31.8333492       4.30929995      -3.52481651    
 O    30.6817589       3.53512669      -4.91720438    
 H    29.9790287       3.21412873      -4.32458401    
 H    30.2518539       4.02419662      -5.61349916    
          21
 Ord_Energy   -56.6894608    
 O    35.4462166       1.30129158      -3.44016099    
 H    35.4074860       2.17422104      -3.03820634    
 H    34.8825188       1.38578093      -4.21932697    
 O    33.6955681      -6.16948418E-02  -1.67954063    
 H    33.1889915      0.726294100      -1.45001054    
 H    34.4120216      0.259031445      -2.24460745    
 O    31.3471165       1.29806793      -4.00639772    
 H    31.4370117      0.340927243      -3.88145590    
 H    31.4443893       1.68423212      -3.12813997    
 O    32.2475967       2.45726371      -1.50623119    
 H    32.8722153       3.04341459      -1.96215546    
 H    31.8630409       2.96642923     -0.796870232    
 O    33.4673080       2.34347796      -5.30381680    
 H    33.3713074       2.30444145      -6.25066280    
 H    32.6667137       1.93816447      -4.92256689    
 O    34.0307236       3.92485857      -3.08341122    
 H    33.8471375       3.47888947      -3.92754483    
 H    34.3181458       4.80798340      -3.30061936    
 O    31.9256840      -1.32875943      -3.37056851    
 H    31.7113094      -2.21474862      -3.09248471    
 H    32.5857582      -1.00099266      -2.73607969    
          21
 Ord_Energy   -56.6348114    
 O    29.9502010      0.705858469      -2.10501218    
 H    29.3943386      -5.45560382E-02  -1.95776761    
 H    30.8321819      0.460011244      -1.78043664    
 O    32.5389023      0.173314527      -1.32145429    
 H    33.1873627     -0.224986285     -0.747788489    
 H    33.0142670      0.848845243      -1.83362412    
 O    33.6963615       2.15818191      -2.83509421    
 H    33.4541054       2.02990460      -3.76099324    
 H    33.3105087       3.00988698      -2.59804583    
 O    32.6405716       2.28583431      -5.51228094    
 H    32.7388191       1.94795513      -6.39832211    
 H    32.8901672       3.22538686      -5.54264259    
 O    32.1638489       4.62703180      -2.63981462    
 H    31.4482574       4.05366468      -2.97400427    
 H    31.8095856       5.09991074      -1.89258492    
 O    30.4152279       2.89191937      -3.74418712    
 H    30.9982243       2.55033922      -4.43211794    
 H    30.1726665       2.13499308      -3.19026613    
 O    33.2763710       4.94714308      -5.18646240    
 H    32.9140549       4.98788214      -4.28701639    
 H    34.0648003       5.48471451      -5.17640018    
          21
 Ord_Energy   -56.6157913    
 O    30.8201427     -0.434200495      -4.72706747    
 H    30.6936874      -1.33590543      -4.44182205    
 H    30.9404621       8.73354822E-02  -3.91742969    
 O    32.5537796       1.11639428      -6.20339823    
 H    31.9209156      0.494133949      -5.80552149    
 H    32.6434669      0.867338479      -7.11926413    
 O    31.4062443       3.28715348      -4.70379686    
 H    31.2850666       2.74127007      -3.91805315    
 H    31.7732105       2.68570614      -5.36401796    
 O    35.2812195       3.64506412      -3.43629479    
 H    34.5971985       4.29011774      -3.68106580    
 H    36.1147270       4.09914017      -3.52557302    
 O    33.2056198       5.29792547      -4.17803860    
 H    32.5237083       4.63785791      -4.38810968    
 H    32.7745857       6.14612246      -4.23267889    
 O    31.5196514       1.26022089      -2.61617374    
 H    31.5126972       1.39484119      -1.67311299    
 H    32.4558105       1.22581613      -2.88987589    
 O    34.0041389       1.19825304      -3.68161201    
 H    34.5194435       2.01184511      -3.57561660    
 H    33.7406349       1.16175342      -4.60846519    
          21
 Ord_Energy   -56.5813065    