          24
 Ord_Energy   -73.3260498    
 O    2.44151878       2.29583812       1.73684192    
 H    2.10576701       2.85209227       1.02185893    
 H    3.24070430       1.87805426       1.39008176    
 O    3.11488080       5.95026445       1.43912661    
 H    4.01919937       5.99848270       1.10242820    
 H    3.16989255       5.45491552       2.26674461    
 O    4.95295858       1.53131342      0.619642556    
 H    4.83077002       2.19899130      -7.92488009E-02
 H    5.32197714      0.758489311      0.201373354    
 O    3.36185527       4.07303572       3.58548498    
 H    2.96912098       3.39495993       3.00656700    
 H    2.97822809       3.95370078       4.44975948    
 O    4.49784088       3.58637452      -1.11024833    
 H    3.56202936       3.79492307     -0.990886271    
 H    4.98238659       4.32899570     -0.726740122    
 O    1.85199356       4.24738169     -0.272082359    
 H    2.22260380       4.93025684      0.315711886    
 H    1.06927526       4.61974859     -0.668410420    
 O    5.77801752       5.59219408      0.480247229    
 H    5.92232943       4.91971636       1.17026222    
 H    6.57534409       6.11198568      0.430569887    
 O    5.89058399       3.61144733       2.34757209    
 H    5.68677855       2.80792117       1.85142899    
 H    5.12289143       3.77246428       2.91166854    
          24
 Ord_Energy   -73.2936554    
 O    1.94727004       3.45087075     -0.112735324    
 H    1.17478311       3.73569179     -0.618221521    
 H    2.10489774       2.53287506     -0.369276404    
 O   -1.91753757      0.642445505      0.757710636    
 H   -2.65840340       5.01885787E-02  0.664169967    
 H   -1.53314209      0.755921364     -0.130200297    
 O   -1.54239821       3.43456268       1.21451330    
 H  -0.752228022       3.45000625       1.77018237    
 H   -1.80869532       2.50732327       1.16266251    
 O    1.99231350      0.637880385     -0.592707455    
 H    1.60651553      0.500588715      0.291223168    
 H    2.65877676      -3.32350917E-02 -0.710312724    
 O  -0.630208313       1.15099359      -1.59491026    
 H  -0.641935229       2.11463904      -1.66292262    
 H   0.288179338      0.911822259      -1.41397750    
 O   0.726815641      0.500033677       1.82186830    
 H  -0.209255219      0.438940287       1.59075260    
 H   0.847212076       1.38162327       2.19827247    
 O    1.02501559       3.26807785       2.44982123    
 H    1.43286526       3.40248179       1.57539773    
 H    1.52834642       3.78601408       3.07175398    
 O  -0.598312378       3.98805690      -1.28608847    
 H   -1.00475955       3.87746859     -0.407684594    
 H   -1.02724075       4.73349285      -1.69687521    
          24
 Ord_Energy   -70.9184799    
 O  -0.342065364      -1.00326550      -4.08711338    
 H   0.546899736      -1.19343996      -4.41014051    
 H  -0.589164197     -0.163177997      -4.49367142    
 O    2.45401573      -1.14016426      -4.89116383    
 H    2.33350205     -0.248928040      -5.26837063    
 H    2.79730606      -1.69142413      -5.58880043    
 O    1.99907327       1.39630210      -5.69690037    
 H    2.37277341       1.87335634      -4.94047976    
 H    1.04839110       1.55339420      -5.65080118    
 O  -0.755362749       1.72263277      -4.97883797    
 H  -0.568344831       2.09950995      -4.10373259    
 H   -1.51933753       2.18262577      -5.31773996    
 O   0.396030813       3.78815494E-02  -1.60684717    
 H    1.34671307     -0.119210497      -1.65294635    
 H    2.23307107E-02 -0.439172626      -2.36326790    
 O   -5.89115508E-02   2.57434797      -2.41258383    
 H    6.16020896E-02   1.68311167      -2.03537703    
 H  -0.402201921       3.12560773      -1.71494699    
 O    3.15046692     -0.288449109      -2.32490945    
 H    3.91444159     -0.748442054      -1.98600745    
 H    2.96344900     -0.665326416      -3.20001507    
 O    2.73716950       2.43744922      -3.21663427    
 H    1.84820437       2.62762380      -2.89360690    
 H    2.98426843       1.59736168      -2.81007624    
          24
 Ord_Energy   -70.8874054    
 O    1.88508117       3.35372472      0.813570559    
 H    1.50645554       3.38850570      -7.84486085E-02
 H    2.10707474       2.42810130      0.963576853    
 O   -1.88341153      0.702651560      0.231983289    
 H   -2.05126429       1.64126301       7.85387605E-02
 H   -1.16138494      0.468939304     -0.364424139    
 O   -1.96081185       3.56644177       7.88697973E-03
 H   -2.66954041       4.20329714      -4.12960015E-02
 H   -1.46957731       3.75764871      0.822955191    
 O    1.94761014      0.478651404       1.21297503    
 H    1.15347421      0.627846897       1.75894701    
 H    2.55261374      -3.50937918E-02   1.74061155    
 O   0.580269873      0.279398561      -1.21740830    
 H   0.906693339     -0.430629402      -1.76477265    
 H    1.12586462      0.286639363     -0.414612144    
 O  -0.349068463       1.05034053       2.52788830    
 H  -0.986653388      0.821058154       1.83421671    
 H  -0.410381049       2.00671816       2.62860823    
 O  -0.333548248       3.94035244       2.25027132    
 H   0.510337412       3.80067897       1.78192878    
 H  -0.172308370       4.60075569       2.91827822    
 O   0.433131605       3.12984109      -1.55032337    
 H  -0.434848994       3.33561778      -1.18166196    
 H   0.469836444       2.16612792      -1.60152137    
          24
 Ord_Energy   -70.1030350    
 O   0.171842977     -0.348560572       1.31398344    
 H   0.311632961     -0.714489222       2.18271399    
 H   0.970088124      0.165081918       1.09287918    
 O    2.27043152       1.12823081      0.425227642    
 H    1.84017086       1.98440611      0.276052505    
 H    2.47549486      0.793141425     -0.454610616    
 O   -1.75871778      0.746327460      -2.32097197    
 H   -2.56980467      0.381707579      -2.66416502    
 H   -1.21719229      -4.55916021E-03  -2.01495218    
 O    2.27031398      0.276977867      -2.34432817    
 H    2.95625234      0.153053522      -2.99590492    
 H    1.71825206       1.01130557      -2.65685463    
 O   0.433845907       2.27258420      -3.07019925    
 H   0.234724522       2.87276816      -3.78476095    
 H  -0.392031729       1.80684602      -2.85804057    
 O   0.716915846       3.31507564     -0.318893760    
 H   0.682231545       3.15704942      -1.26752663    
 H  -0.108581759       2.94252110       2.59505808E-02
 O   -4.73356918E-02  -1.12894762      -1.39101684    
 H   -8.80218018E-03  -1.01022947     -0.431815088    
 H   0.808478653     -0.835194707      -1.72750008    
 O   -1.53337669       1.79417109      0.405774772    
 H   -1.06752574       1.05588257      0.819527686    
 H   -1.77006853       1.48534834     -0.475891918    
          24
 Ord_Energy   -70.0939636    
 O   -2.17526054       1.13705373      -1.41959929    
 H   -1.42919195       1.40061641     -0.868100584    
 H   -1.78587699      0.820020974      -2.24449968    
 O   -2.67822886      -1.29668391     -0.126110286    
 H   -1.99819922      -1.24482954      0.552107275    
 H   -2.67567825     -0.426699072     -0.554263651    
 O   -1.19324374      -2.47043610      -2.16464376    
 H   -1.12319326      -1.74535251      -2.79727077    
 H   -1.83983755      -2.18150091      -1.50240004    
 O    1.42972100      0.101121910      -1.87174821    
 H    1.11603963      0.682047486      -1.16632831    
 H    1.46566153     -0.780939162      -1.48218310    
 O    1.01630688      -2.48651862     -0.638501406    
 H   0.233068824      -2.56412864      -1.21585929    
 H    1.54076791      -3.27010512     -0.775911510    
 O  -0.160293117      -1.07967484       1.44228566    
 H   0.284645677      -1.62579703      0.773012757    
 H   -7.60583431E-02  -1.54061341       2.27340364    
 O  -0.699534774      -3.84179093E-02  -3.60098100    
 H   0.118822910       5.17451316E-02  -3.08234859    
 H  -0.494546890      0.240998894      -4.48912525    
 O   0.154170051       1.44604194      0.297152728    
 H   0.336466253       2.12915850      0.937843680    
 H    2.37439908E-02  0.622889578      0.794618487    
          24
 Ord_Energy   -70.0696640    
 O    3.31153083       1.70420527      -1.46858239    
 H    3.65998197       1.76426828     -0.565328002    
 H    2.69510722       2.43889380      -1.55321419    
 O   -2.80650798E-02   1.56439531       2.05838823    
 H   0.517441809       2.36217165       1.97205758    
 H  -0.570583284       1.68465567       2.83406210    
 O    1.77493048     -0.535238564      -1.25722551    
 H    2.02913451      -1.22579360      -1.86285985    
 H    2.38681817      0.208450973      -1.40509391    
 O  -0.287979603       1.33504319     -0.779452205    
 H  -0.374693751       1.32017648      0.181993052    
 H   0.301627547      0.601754844      -1.00328135    
 O    2.12121248     -0.329922706       1.59843397    
 H    1.99669743     -0.553712666      0.667295396    
 H    1.34130812      0.180435345       1.84654963    
 O    3.82999396       1.87384391       1.25738335    
 H    3.37222171       1.04890358       1.47932839    
 H    3.20573235       2.57404327       1.47221899    
 O    1.10405743       3.61279678      -1.24667263    
 H   0.544215024       2.81898403      -1.16133666    
 H   0.746984303       4.12686682      -1.96556723    
 O    1.58879602       3.78288698       1.48232687    
 H    1.46032262       3.81755042      0.519948661    
 H    1.75685883       4.67710733       1.76967287    
          24
 Ord_Energy   -69.8161011    
 O    2.54893541       1.79993629       1.03410029    
 H    1.87009192       1.15351188      0.859685183    
 H    2.25391936       2.63350916      0.627711892    
 O    2.72772193       5.86640835       2.26166630    
 H    2.44049549       6.65371323       2.71819043    
 H    3.63713503       6.02987242       1.96763515    
 O    5.19912577       2.23251724      -3.61917005E-03
 H    4.33836079       1.93577659      0.320259482    
 H    5.01540995       3.01421928     -0.537072003    
 O    3.36933565       3.23877144       3.38871121    
 H    3.05631709       2.64080906       2.69709778    
 H    3.02720952       4.10758781       3.14894295    
 O    4.55630779       4.86081648      -1.12843239    
 H    4.88986826       5.34095860     -0.354863971    
 H    4.93014193       5.28458548      -1.89747775    
 O    2.00072885       4.27627659       3.85551993E-03
 H    2.06768918       4.86579847      0.766038477    
 H    2.77251792       4.47819281     -0.540675461    
 O    5.37245989       6.05505848       1.29490089    
 H    5.63861895       5.20224237       1.69143236    
 H    6.06823635       6.67751980       1.48555768    
 O    5.91356134       3.64930630       2.30037522    
 H    5.14012766       3.44896865       2.84681463    
 H    5.84750986       3.05995893       1.53536654    
          24
 Ord_Energy   -69.1362076    
 O   -14.1546984       21.9485111       4.29170418    
 H   -15.0457287       21.7736473       4.00215769    
 H   -13.5798340       21.3745708       3.75637102    
 O   -10.9996481       23.0041790       2.33441234    
 H   -10.0594082       22.9721699       2.54802966    
 H   -11.4183292       23.4332733       3.09138727    
 O   -12.2655525       20.5593262       2.87403011    
 H   -11.6978006       20.1657124       3.54705334    
 H   -11.8049335       21.3535480       2.56230783    
 O   -8.74818325       19.9401283       2.67316484    
 H   -9.30396080       19.7151661       1.92799962    
 H   -9.26578236       19.7063847       3.45916700    
 O   -12.2309732       23.8094616       4.82520342    
 H   -12.6030445       24.6267834       5.14525890    
 H   -12.9741135       23.1936512       4.70071459    
 O   -8.31308651       22.5861244       3.27819037    
 H   -7.43551731       22.8897228       3.06235456    
 H   -8.35589695       21.6492634       3.02052355    
 O   -10.4214611       19.6523361       4.89394474    
 H   -10.5594749       19.0845795       5.64665127    
 H   -10.2852602       20.5529404       5.23959255    
 O   -9.97607613       22.2403297       5.58519745    
 H   -9.32836246       22.4782314       4.90900755    
 H   -10.7429142       22.8068161       5.42907715    
          24
 Ord_Energy   -68.8637695    
 O    3.79689908       2.16874838       2.91507292    
 H    3.77236009       1.50629044       2.20164704    
 H    4.71425819       2.28004336       3.14973021    
 O    3.25941205       2.34651375      -1.34358847    
 H    3.73947668       2.60756803      -2.12486243    
 H    2.44421983       1.91255832      -1.64896345    
 O    1.41677999       1.74312270       4.36197090    
 H    1.38089049       2.33862567       5.10736609    
 H    2.28278232       1.88686061       3.94985700    
 O    3.62061572      0.478399366      0.784264863    
 H    2.75775242       4.88873310E-02  0.732075512    
 H    3.65562105       1.07168281       2.24250201E-02
 O   0.935104370       1.02251267      -1.93258893    
 H    5.78294210E-02   1.37623715      -2.06432056    
 H   0.872983813      0.448491603      -1.15278697    
 O   0.888808250     -0.368804723      0.480905473    
 H   0.589484811      0.406598270      0.992889047    
 H   0.464545280      -1.13354313      0.858914196    
 O    2.18582344       3.67281318      0.991346478    
 H    2.56387925       3.35649014      0.161634997    
 H    2.77614689       3.34599876       1.68125272    
 O   0.218179196       1.84968996       1.83157039    
 H   0.459631294       1.78646350       2.76561308    
 H   0.761482894       2.56592131       1.47316015    
          24
 Ord_Energy   -68.7071381    
 O   -12.5279045       23.4003315       4.40588474    
 H   -13.3202953       23.9236698       4.49361229    
 H   -12.4611998       22.8566322       5.20959473    
 O   -9.74149609       24.0821266       4.45894337    
 H   -9.32093811       23.7505093       3.65462542    
 H   -10.6938105       23.9867840       4.32888222    
 O   -10.5094528       22.1636753      0.514375269    
 H   -10.8087091       21.7706318     -0.300349116    
 H   -11.0669632       21.7861423       1.21769977    
 O   -8.49997520       22.8057194       2.23418093    
 H   -9.17021275       22.6241055       1.55234337    
 H   -7.68659353       22.9937840       1.77381945    
 O   -9.31327248       22.2421303       6.40764141    
 H   -9.39729786       22.9706650       5.76527548    
 H   -8.59576893       22.4697456       6.99203730    
 O   -9.35943604       20.6511707       3.97625279    
 H   -9.28080654       21.0393124       4.85507917    
 H   -8.93015480       21.2816525       3.38334250    
 O   -11.8098097       21.2027493       2.70726562    
 H   -11.0361605       20.8769951       3.19070053    
 H   -12.1495275       21.9449997       3.22087908    
 O   -12.0594358       21.7718983       6.56756163    
 H   -11.0985212       21.8857384       6.63521767    
 H   -12.2103891       20.8285656       6.55189323    
          24
 Ord_Energy   -68.6724548    
 O    3.99325037      -1.53608513      0.933197916    
 H    4.90296364      -1.26195133       1.00421154    
 H    3.46585679     -0.899501383       1.44710171    
 O   0.347690701      -2.07283521       2.48180223    
 H   -8.20231289E-02  -2.57857847       3.16617060    
 H   0.901838243      -2.69581532       1.98047149    
 O   0.752282083       1.71725416      0.385504097    
 H   0.121081330       2.37557650      0.663383484    
 H   0.256460547      0.887611926      0.254840106    
 O    2.08029079      -1.50681686      -1.24741030    
 H    2.14949822     -0.648155272      -1.68847477    
 H    2.79259443      -1.50624204     -0.594770372    
 O    2.17468905       1.18063247      -2.00348139    
 H    1.73748398       1.49720562      -1.19879115    
 H    1.87255180       1.75022745      -2.70737672    
 O    2.24770999       8.48771408E-02   2.26186180    
 H    1.82326174      0.735453129       1.68991113    
 H    1.56612086     -0.565976560       2.47539568    
 O  -0.317776978     -0.746659338       4.37753201E-02
 H   0.430022985      -1.08333826     -0.471980095    
 H  -0.286463916      -1.21732128      0.885593832    
 O    2.02430606      -3.54895759      0.879093468    
 H    1.79784739      -3.29308963      -2.14743707E-02
 H    2.84825349      -3.07091141       1.05182159    
          24
 Ord_Energy   -68.6403809    
 O    1.45869708       1.52980411      -1.85045493    
 H    1.59339476      0.956468225      -2.61844468    
 H   0.510405898       1.70067477      -1.81447673    
 O    1.46427822     -0.385804087      -3.89461064    
 H    1.99739313      -1.16691077      -4.02783871    
 H   0.604620516     -0.704269290      -3.58056927    
 O   0.421402723      -2.15973902     -0.389906168    
 H    1.00300455      -1.44550800      -9.70020965E-02
 H    4.00480023E-03  -1.84361804      -1.20005047    
 O  -0.900811434      0.776225507       1.05261862    
 H    5.50462417E-02  0.641412318       1.03404176    
 H   -1.28085697      -8.46978575E-02   1.28083587    
 O   -1.66377556      -1.87893844       1.41049182    
 H   -1.68148100      -2.56862903       2.06896186    
 H  -0.936844051      -2.10535073      0.806368232    
 O  -0.987395823      -1.04058027      -2.66484475    
 H   -1.20505166     -0.174679831      -2.28249478    
 H   -1.81742954      -1.46481645      -2.86923504    
 O    1.84529686      0.174422577      0.473865092    
 H    1.80922019      0.692878425     -0.349524885    
 H    2.67978787      0.375117064      0.888234377    
 O   -1.42307389       1.44511616      -1.50436282    
 H   -1.30479705       1.24966359     -0.556415617    
 H   -2.03105426       2.17652774      -1.56300426    
          24
 Ord_Energy   -68.6143265    
 O    1.02258670       7.69323301       4.71822500    
 H   0.500457346       8.44722939       4.97739506    
 H    1.51056278       7.95249271       3.91642880    
 O    1.30419445       3.67905474       5.76879692    
 H   0.608574688       3.20750380       6.21927834    
 H   0.889395535       4.08482742       4.98846865    
 O    5.18647575       8.05415916       3.13144469    
 H    5.11264563       7.11783695       3.36823702    
 H    5.68258238       8.46189117       3.83836889    
 O    2.60072803       5.32509422       1.82689607    
 H    3.32951260       5.26283550       2.46420717    
 H    2.88880324       4.87556362       1.03599596    
 O    2.46484566       8.13141823       2.45753908    
 H    3.40448022       8.27720165       2.63612461    
 H    2.41619635       7.25958776       2.04714465    
 O    2.96561933       5.90116978       5.81519842    
 H    2.33412600       6.58871889       5.56947231    
 H    2.44137836       5.09664106       5.94629955    
 O   0.352407813       5.12046576       3.61540532    
 H   0.414298624       6.00472784       3.99978876    
 H    1.01878989       5.10106325       2.91759706    
 O    4.62917423       5.34989595       3.78134656    
 H    4.06070852       5.54952669       4.54889774    
 H    5.20551538       4.63768721       4.04439592    
          24
 Ord_Energy   -68.5904083    
 O    3.58878803       1.92142844      0.189816818    
 H    3.69415236       1.42258120       1.01432681    
 H    3.03336287       2.67747521      0.408598751    
 O  -0.286043882       2.03617597       1.23926699    
 H   0.399994940       2.72125769       1.20089495    
 H  -0.988144994       2.38310552       1.78451800    
 O    2.22124553      0.166635334      -1.37965202    
 H    2.80891728     -0.321248949      -1.94958544    
 H    2.77141857      0.802531481     -0.887048602    
 O   -3.37443799E-02   1.84678781      -1.63022530    
 H  -0.324527681       1.82134938     -0.710547090    
 H   0.701829910       1.22132301      -1.68149626    
 O    1.14716625     -0.442238927       1.22751093    
 H    1.44920468     -0.422820687      0.310433239    
 H   0.575494230      0.330571443       1.32107711    
 O    3.49396253      0.332017630       2.46772718    
 H    3.89130926     -0.368199348       2.97841239    
 H    2.65310574      -2.44612005E-02   2.13479161    
 O   0.875252843       4.42006588      -1.72364497    
 H   0.511645794       3.52257872      -1.82236969    
 H   0.983570814       4.76365852      -2.60563278    
 O    1.67409706       4.00705862      0.831937730    
 H    1.42839277       4.25361681      -7.79391602E-02
 H    1.97372949       4.80194521       1.26505435    
          24
 Ord_Energy   -68.4811707    
 O    1.93799615       3.07700396      0.732442856    
 H    2.58550858       3.10559487       1.61525197E-02
 H    1.79037797       3.99868155      0.979308128    
 O    4.25190496       6.09537840      -7.75925219E-02
 H    3.45063996       6.15353918      0.461086482    
 H    4.92760754       5.72731161      0.504064143    
 O    2.00822592       5.80853176       1.65761161    
 H    2.58067155       5.43090010       2.34995246    
 H    1.42077875       6.42266130       2.08925390    
 O    3.71355653       4.51756001       3.33324766    
 H    3.36640787       3.62799525       3.46759844    
 H    4.44790173       4.40070248       2.71312571    
 O    4.03624487       3.57013965      -1.11005747    
 H    4.33910084       3.43953085      -2.00461841    
 H    4.05579662       4.52885342     -0.944301367    
 O    2.80346298       1.79508650       2.97984600    
 H    2.47310400       2.18714190       2.15152860    
 H    2.09210277       1.26681232       3.33136773    
 O    5.61474371       3.89921737       1.32116902    
 H    5.79673052       3.06747460       1.78266954    
 H    5.16590071       3.63855124      0.507408440    
 O    5.58931828       1.47416329       2.67551708    
 H    5.96148205       1.09611690       3.46899486    
 H    4.62854624       1.47643626       2.80541754    
          24
 Ord_Energy   -68.4520340    
 O    1.68690050      0.408168793       4.05503559    
 H    1.55359435       3.67705710E-02   4.92300606    
 H    1.28069508       1.29156959       4.06437349    
 O   0.471322119       2.63136530      0.869420528    
 H   0.385855317       1.69080496       1.08799851    
 H   0.798325777       2.64056516      -4.06583697E-02
 O    3.06284904       5.26129492E-02  -9.51431617E-02
 H    3.40690064      0.440783799      0.729375482    
 H    3.65752506     -0.654336214     -0.331117839    
 O    2.76111817       3.77308154       1.99540281    
 H    3.01795197       4.54316473       1.49490047    
 H    1.97720599       3.40525770       1.55128443    
 O    1.84846556       2.18786716      -1.50406671    
 H    2.31002283       1.43780947      -1.09808683    
 H    1.63884199       1.91537535      -2.39458466    
 O   0.671287060       2.95800400       3.75810719    
 H    1.47759640       3.43672585       3.52759194    
 H   0.193635404       2.91408730       2.92064714    
 O    3.80301166       1.16041923       2.27543235    
 H    3.61021042       2.10535026       2.20849967    
 H    3.21211243      0.824682653       2.96140265    
 O   0.597739220      -8.87403190E-02   1.44119453    
 H    1.37244844     -0.218546584      0.880351424    
 H   0.925796628      -9.58594605E-02   2.34936738    
          24
 Ord_Energy   -68.3609695    
 O   0.339880794       3.34036350      -5.04647970    
 H   0.326275527       4.28996897      -4.96402216    
 H   0.963737011       3.01377010      -4.37356186    
 O   0.485875726     -0.533078969      -5.33793831    
 H   0.600539088       6.85879365E-02  -6.08761168    
 H    1.32982469     -0.528198063      -4.87206221    
 O    2.86509132     -0.325042009      -3.69757700    
 H    2.41057396     -0.724642515      -2.93624282    
 H    3.71538115     -0.751247585      -3.76582932    
 O    1.92848313       2.29436374      -3.08633757    
 H    2.37759376       1.48536313      -3.36466670    
 H    1.31091535       2.01582336      -2.39920712    
 O   -1.21084380       1.14683354      -3.92478967    
 H  -0.925318122       1.96927643      -4.33778715    
 H  -0.729524314      0.450985819      -4.39987040    
 O  -0.147243232       1.11375022      -1.44432378    
 H  -0.613760769       1.10546100      -2.30080914    
 H  -0.736019075       1.51330173     -0.810482323    
 O   0.740914762       1.55992889      -7.19838381    
 H   0.202633619       1.82221425      -7.94200754    
 H   0.614850461       2.24580479      -6.52522278    
 O    1.32582462      -1.25127065      -1.62248707    
 H   0.702781856      -1.96967888      -1.71458411    
 H   0.791884661     -0.457785368      -1.46011341    
          24
 Ord_Energy   -68.3030014    
 O    1.94328213       8.48099995       3.86301613    
 H    2.58050799       8.25692272       3.16007686    
 H    1.79267275       9.42050076       3.80727029    
 O   0.365871936       4.47122765       5.44657898    
 H   0.240435705       5.09440851       4.70918083    
 H  -0.391434044       4.57325935       6.01558876    
 O    5.87093115       7.47150707       3.86637878    
 H    6.56002092       7.98125029       4.28422213    
 H    5.20458317       7.30886936       4.55503941    
 O    2.76266980       4.89091158       2.24463797    
 H    2.88110566       4.11041880       1.70849657    
 H    2.94585681       4.62858629       3.16064954    
 O    3.75970793       7.57980871       2.05212331    
 H    3.49506664       6.65515184       1.97367346    
 H    4.58964729       7.57638264       2.55222654    
 O    3.73764038       6.99777269       5.56559563    
 H    3.48463202       6.07638407       5.43582916    
 H    3.05562639       7.52477694       5.12967539    
 O   0.406878918       6.17220640       3.31655002    
 H    1.06602454       5.73593903       2.76303625    
 H   0.790593207       7.03201056       3.53499818    
 O    3.02204251       4.25183296       4.96812630    
 H    2.08103490       4.26176596       5.21952009    
 H    3.44260502       3.57283592       5.48912907    
          24
 Ord_Energy   -68.2390976    
 O    2.15432477       6.95731974       2.06713271    
 H    2.47671485       6.04050541       2.04147816    
 H    1.73079586       7.10954857       1.22658181    
 O    5.98497772       3.98691750       4.92348433    
 H    6.12000370       4.50964069       4.12189627    
 H    6.11287355       4.59493351       5.66517210    
 O    3.17569900       6.05744314       6.07063770    
 H    2.29333806       6.27845526       6.35899878    
 H    3.12546802       5.17279053       5.67412615    
 O    3.33130503       3.51798892       4.91958094    
 H    4.30556536       3.57293773       4.92847633    
 H    3.10241318       2.63293600       5.18963289    
 O    4.25456142       7.49627495       3.80312777    
 H    3.50995398       7.47898197       3.18237972    
 H    3.91296411       7.10781002       4.61642075    
 O    3.35903525       4.47204494       2.19188380    
 H    4.27737331       4.77204180       2.19458032    
 H    3.22523522       4.06355476       3.05529785    
 O    5.86919641       5.93647194       6.94687128    
 H    6.24406052       6.81526279       6.94066286    
 H    4.92343712       6.05544758       6.77520609    
 O    5.93461227       5.67771864       2.65494561    
 H    6.55696917       6.09529829       2.06613660    
 H    5.41082239       6.39061689       3.06293201    
          24
 Ord_Energy   -68.2202606    
 O  -0.217395544     -0.454955667      -3.71492124    
 H   0.117803060      0.247148395      -3.14593959    
 H   -1.15821171     -0.522892892      -3.49942803    
 O   -2.78710341     -0.703914046      -2.52632499    
 H   -2.61606240      -1.53652501      -2.06953883    
 H   -2.67071438      -1.92728806E-02  -1.85834253    
 O   -1.89144325      -3.02745819      -1.00760686    
 H   -1.01413715      -2.95914006      -1.43091476    
 H   -2.21783876      -3.90465164      -1.18544638    
 O    1.29120481     -0.828120589      -3.96472290E-02
 H   0.475007653     -0.940423965      0.459134966    
 H    1.16281366      -2.29462609E-02 -0.557965517    
 O   -1.44659519      -1.22787321       1.02201879    
 H   -1.63622010      -1.91363549      0.359035790    
 H   -1.54066396      -1.63810503       1.87810433    
 O   -2.04885912       1.10977101     -0.338255733    
 H   -2.70915747       1.62970185      0.113781370    
 H   -1.87201011      0.333921492      0.218794525    
 O   0.517970324      -2.60616708      -2.09345388    
 H   0.976144910      -2.11660600      -1.39706433    
 H   0.351132005      -1.96020365      -2.79568648    
 O   0.444265723       1.44778526      -1.59468532    
 H  -0.436594933       1.44822598      -1.18955696    
 H   0.715460539       2.36040139      -1.66277587    
          24
 Ord_Energy   -68.0789719    
 O  -0.137757316       3.77265239       2.84140396    
 H  -0.196320295       4.22888851       1.99582267    
 H  -0.827037275       3.09348440       2.81047797    
 O  -0.225174785      0.623265266      -1.04248405    
 H  -0.913446009       1.29654408     -0.915139675    
 H  -0.365812689      0.247109383      -1.90812838    
 O   -2.05464053       2.65226173     -0.490648538    
 H   -2.88840461       2.99970222     -0.797723234    
 H   -1.47857261       3.41612220     -0.316933811    
 O    1.92611372       1.96925557       2.22391987    
 H    1.31128156       2.62529898       2.58549619    
 H    1.42574191       1.14714003       2.17831278    
 O    1.67764378       2.77065086     -0.398596764    
 H    1.23728180       2.00000548     -0.768997490    
 H    1.91864300       2.51991653      0.508259952    
 O   0.124932587     -0.245290056       1.61481929    
 H    5.60284592E-02  -5.21626212E-02  0.667288780    
 H   0.236107096      -1.18977463       1.69527161    
 O   -1.93309247       1.66270363       2.27385831    
 H   -1.29685330      0.941649079       2.18467307    
 H   -2.11822009       1.95060992       1.37326729    
 O  -0.223824456       4.64364243       1.45717096E-02
 H    5.72775416E-02   5.52482939     -0.215218574    
 H   0.532036722       4.05149460     -0.157051444    
          24