
    -----------------------------------------------------------------------
          Psi4: An Open-Source Ab Initio Electronic Structure Package
                               Psi4 1.9.1 release

                         Git: Rev {} zzzzzzz 


    D. G. A. Smith, L. A. Burns, A. C. Simmonett, R. M. Parrish,
    M. C. Schieber, R. Galvelis, P. Kraus, H. Kruse, R. Di Remigio,
    A. Alenaizan, A. M. James, S. Lehtola, J. P. Misiewicz, M. Scheurer,
    R. A. Shaw, J. B. Schriber, Y. Xie, Z. L. Glick, D. A. Sirianni,
    J. S. O'Brien, J. M. Waldrop, A. Kumar, E. G. Hohenstein,
    B. P. Pritchard, B. R. Brooks, H. F. Schaefer III, A. Yu. Sokolov,
    K. Patkowski, A. E. DePrince III, U. Bozkaya, R. A. King,
    F. A. Evangelista, J. M. Turney, T. D. Crawford, C. D. Sherrill,
    J. Chem. Phys. 152(18) 184108 (2020). https://doi.org/10.1063/5.0006002

                            Additional Code Authors
    E. T. Seidl, C. L. Janssen, E. F. Valeev, M. L. Leininger,
    J. F. Gonthier, R. M. Richard, H. R. McAlexander, M. Saitow, X. Wang,
    P. Verma, M. H. Lechner, A. Jiang, S. Behnle, A. G. Heide,
    M. F. Herbst, and D. L. Poole

             Previous Authors, Complete List of Code Contributors,
                       and Citations for Specific Modules
    https://github.com/psi4/psi4/blob/master/codemeta.json
    https://github.com/psi4/psi4/graphs/contributors
    http://psicode.org/psi4manual/master/introduction.html#citing-psifour

    -----------------------------------------------------------------------


    Psi4 started on: Wednesday, 08 May 2024 10:44AM

    Process ID: 1649852
    Host:       Rulai
    PSIDATADIR: /home/yzhang/.conda/envs/qcfractal-worker-psi4/share/psi4
    Memory:     500.0 MiB
    Threads:    1
    
  ==> Input File <==

--------------------------------------------------------------------------
molecule trimer_sub3f_4_5230 {
O 29.7298775 28.7905693 13.3669500
H 28.9162426 28.5478725 12.9321842
H 30.0577316 29.5761147 12.8979540
--
O 30.7100487 31.1541729 12.3198385
H 30.8583927 31.5918179 13.1748171
H 31.4290142 31.4305325 11.7571325
--
O 30.5369911 29.5953159 15.8858290
H 31.0147572 28.8934307 16.3205948
H 30.2152100 29.2193432 15.0493917
}

set basis 6-31G*

ecp = {}

label = 'trimer_sub3f_4_5230-230'

ecp[label] = energy('b3lyp-d3', bsse_type = 'vmfc', max_nbody = 3)
--------------------------------------------------------------------------

Scratch directory: /tmp/

  //>>>>>>>>>>>>>>>>>>>>>>>>>>>>>>>>>>>>>>>>//
  // ManyBody Setup: N-Body Levels [1, 2, 3]//
  //<<<<<<<<<<<<<<<<<<<<<<<<<<<<<<<<<<<<<<<<//

        Number of 1-body computations:     12
        Number of 2-body computations:     6
        Number of 3-body computations:     1

    -----------------------------------------------------------------------
          Psi4: An Open-Source Ab Initio Electronic Structure Package
                               Psi4 1.9.1 release

                         Git: Rev {} zzzzzzz 


    D. G. A. Smith, L. A. Burns, A. C. Simmonett, R. M. Parrish,
    M. C. Schieber, R. Galvelis, P. Kraus, H. Kruse, R. Di Remigio,
    A. Alenaizan, A. M. James, S. Lehtola, J. P. Misiewicz, M. Scheurer,
    R. A. Shaw, J. B. Schriber, Y. Xie, Z. L. Glick, D. A. Sirianni,
    J. S. O'Brien, J. M. Waldrop, A. Kumar, E. G. Hohenstein,
    B. P. Pritchard, B. R. Brooks, H. F. Schaefer III, A. Yu. Sokolov,
    K. Patkowski, A. E. DePrince III, U. Bozkaya, R. A. King,
    F. A. Evangelista, J. M. Turney, T. D. Crawford, C. D. Sherrill,
    J. Chem. Phys. 152(18) 184108 (2020). https://doi.org/10.1063/5.0006002

                            Additional Code Authors
    E. T. Seidl, C. L. Janssen, E. F. Valeev, M. L. Leininger,
    J. F. Gonthier, R. M. Richard, H. R. McAlexander, M. Saitow, X. Wang,
    P. Verma, M. H. Lechner, A. Jiang, S. Behnle, A. G. Heide,
    M. F. Herbst, and D. L. Poole

             Previous Authors, Complete List of Code Contributors,
                       and Citations for Specific Modules
    https://github.com/psi4/psi4/blob/master/codemeta.json
    https://github.com/psi4/psi4/graphs/contributors
    http://psicode.org/psi4manual/master/introduction.html#citing-psifour

    -----------------------------------------------------------------------


    Psi4 started on: Wednesday, 08 May 2024 10:44AM

    Process ID: 1649852
    Host:       Rulai
    PSIDATADIR: /home/yzhang/.conda/envs/qcfractal-worker-psi4/share/psi4
    Memory:     500.0 MiB
    Threads:    1
    
  ==> Input QCSchema <==

--------------------------------------------------------------------------
{'driver': 'energy',
 'extras': {'psiapi': True, 'wfn_qcvars_only': True},
 'id': None,
 'keywords': {'function_kwargs': {}},
 'model': {'basis': '6-31g*', 'method': 'b3lyp-d3'},
 'molecule': {'atom_labels': ['', '', ''],
              'atomic_numbers': [8, 1, 1],
              'extras': {},
              'fix_com': True,
              'fix_orientation': True,
              'fragment_charges': [0.0],
              'fragment_multiplicities': [1],
              'fragments': [[0, 1, 2]],
              'geometry': [-1.144772584160762, -2.0020806225669716, -0.8913671991076271, -2.682319711275035,
                           -2.460711106091985, -1.712955489823198, -0.5252181260523017, -0.5176149574537448,
                           -1.7776411930428466],
              'mass_numbers': [16, 1, 1],
              'masses': [15.99491461957, 1.00782503223, 1.00782503223],
              'molecular_charge': 0.0,
              'molecular_multiplicity': 1,
              'name': 'trimer_sub3f_4_5230',
              'provenance': {'creator': 'QCElemental',
                             'routine': 'qcelemental.molparse.from_string',
                             'version': '0.27.1'},
              'real': [True, True, True],
              'schema_name': 'qcschema_molecule',
              'schema_version': 2,
              'symbols': ['O', 'H', 'H'],
              'validated': True},
 'protocols': {'stdout': True},
 'provenance': {'creator': 'QCElemental', 'routine': 'qcelemental.models.results', 'version': '0.27.1'},
 'schema_name': 'qcschema_input',
 'schema_version': 1}
--------------------------------------------------------------------------

Scratch directory: /tmp/
   => Libint2 <=

    Primary   basis highest AM E, G, H:  6, 6, 3
    Auxiliary basis highest AM E, G, H:  7, 7, 4
    Onebody   basis highest AM E, G, H:  -, -, -
    Solid Harmonics ordering:            Gaussian

*** tstart() called on Rulai
*** at Wed May  8 10:44:31 2024

   => Loading Basis Set <=

    Name: 6-31G*
    Role: ORBITAL
    Keyword: BASIS
    atoms 1   entry O          line   145 file /home/yzhang/.conda/envs/qcfractal-worker-psi4/share/psi4/basis/6-31gs.gbs 
    atoms 2-3 entry H          line    44 file /home/yzhang/.conda/envs/qcfractal-worker-psi4/share/psi4/basis/6-31gs.gbs 

   => B3LYP-D3: Empirical Dispersion <=

    Grimme's -D3 (zero-damping) Dispersion Correction
    Grimme S.; Antony J.; Ehrlich S.; Krieg H. (2010), J. Chem. Phys., 132: 154104

        s6 =       1.000000
        s8 =       1.703000
       sr6 =       1.261000
    alpha6 =      14.000000
       sr8 =       1.000000


         ---------------------------------------------------------
                                   SCF
               by Justin Turney, Rob Parrish, Andy Simmonett
                          and Daniel G. A. Smith
                              RKS Reference
                        1 Threads,    500 MiB Core
         ---------------------------------------------------------

  ==> Geometry <==

    Molecular point group: c1
    Full point group: C1

    Geometry (in Bohr), charge = 0, multiplicity = 1:

       Center              X                  Y                   Z               Mass       
    ------------   -----------------  -----------------  -----------------  -----------------
         O           -1.144772584161    -2.002080622567    -0.891367199108    15.994914619570
         H           -2.682319711275    -2.460711106092    -1.712955489823     1.007825032230
         H           -0.525218126052    -0.517614957454    -1.777641193043     1.007825032230

  Running in c1 symmetry.

  Rotational constants: A =     19.39952  B =      0.52091  C =      0.51460 [cm^-1]
  Rotational constants: A = 581583.02061  B =  15616.61590  C =  15427.23711 [MHz]
  Nuclear repulsion =    9.138330334737931

  Charge       = 0
  Multiplicity = 1
  Electrons    = 10
  Nalpha       = 5
  Nbeta        = 5

  ==> Algorithm <==

  SCF Algorithm Type is DF.
  DIIS enabled.
  MOM disabled.
  Fractional occupation disabled.
  Guess Type is SAD.
  Energy threshold   = 1.00e-06
  Density threshold  = 1.00e-06
  Integral threshold = 1.00e-12

  ==> Primary Basis <==

  Basis Set: 6-31G*
    Blend: 6-31G*
    Number of shells: 10
    Number of basis functions: 19
    Number of Cartesian functions: 19
    Spherical Harmonics?: false
    Max angular momentum: 2

  ==> DFT Potential <==

   => LibXC <=

    Version 6.2.2
    S. Lehtola, C. Steigemann, M. J.T. Oliveira, and M. A.L. Marques.,  SoftwareX 7, 1–5 (2018) (10.1016/j.softx.2017.11.002)

   => Composite Functional: B3LYP-D3ZERO2B <= 

    B3LYP-d3zero2b Hyb-GGA Exchange-Correlation Functional

    P. J. Stephens, F. J. Devlin, C. F. Chabalowski, and M. J. Frisch.,  J. Phys. Chem. 98, 11623 (1994) (10.1021/j100096a001)

    Deriv               =              1
    GGA                 =           TRUE
    Meta                =          FALSE

    Exchange Hybrid     =           TRUE
    MP2 Hybrid          =          FALSE

   => Exchange Functionals <=

    0.0800   Slater exchange
    0.7200         Becke 88

   => Exact (HF) Exchange <=

    0.2000               HF 

   => Correlation Functionals <=

    0.1900   Vosko, Wilk & Nusair (VWN5_RPA)
    0.8100   Lee, Yang & Parr

   => LibXC Density Thresholds  <==

    XC_HYB_GGA_XC_B3LYP:  1.00E-15 

   => Molecular Quadrature <=

    Radial Scheme          =       TREUTLER
    Pruning Scheme         =           NONE
    Nuclear Scheme         =       TREUTLER

    Blocking Scheme        =         OCTREE
    BS radius alpha        =              1
    Pruning alpha          =              1
    Radial Points          =             75
    Spherical Points       =            302
    Total Points           =          65929
    Total Blocks           =            540
    Max Points             =            256
    Max Functions          =             19
    Weights Tolerance      =       1.00E-15

   => Loading Basis Set <=

    Name: (6-31G* AUX)
    Role: JKFIT
    Keyword: DF_BASIS_SCF
    atoms 1   entry O          line   221 file /home/yzhang/.conda/envs/qcfractal-worker-psi4/share/psi4/basis/cc-pvdz-jkfit.gbs 
    atoms 2-3 entry H          line    51 file /home/yzhang/.conda/envs/qcfractal-worker-psi4/share/psi4/basis/cc-pvdz-jkfit.gbs 

  ==> Integral Setup <==

  DFHelper Memory: AOs need 0.001 GiB; user supplied 0.330 GiB. 
  Using in-core AOs.

  ==> MemDFJK: Density-Fitted J/K Matrices <==

    J tasked:                   Yes
    K tasked:                   Yes
    wK tasked:                   No
    OpenMP threads:               1
    Memory [MiB]:               338
    Algorithm:                 Core
    Schwarz Cutoff:           1E-12
    Mask sparsity (%):       0.0000
    Fitting Condition:        1E-10

   => Auxiliary Basis Set <=

  Basis Set: (6-31G* AUX)
    Blend: CC-PVDZ-JKFIT
    Number of shells: 42
    Number of basis functions: 131
    Number of Cartesian functions: 131
    Spherical Harmonics?: false
    Max angular momentum: 3

  Cached 100.0% of DFT collocation blocks in 0.036 [GiB].

  Minimum eigenvalue in the overlap matrix is 2.2508562892E-02.
  Reciprocal condition number of the overlap matrix is 4.8302830571E-03.
    Using symmetric orthogonalization.

  ==> Pre-Iterations <==

  SCF Guess: Superposition of Atomic Densities via on-the-fly atomic UHF (no occupation information).

   -------------------------
    Irrep   Nso     Nmo    
   -------------------------
     A         19      19 
   -------------------------
    Total      19      19
   -------------------------

  ==> Iterations <==

                           Total Energy        Delta E     RMS |[F,P]|

   @DF-RKS iter SAD:   -76.11027137168098   -7.61103e+01   0.00000e+00 
   @DF-RKS iter   1:   -76.26217655239560   -1.51905e-01   3.32609e-02 ADIIS/DIIS
   @DF-RKS iter   2:   -76.11134298601682    1.50834e-01   4.71218e-02 ADIIS/DIIS
   @DF-RKS iter   3:   -76.40744967081419   -2.96107e-01   3.15028e-03 ADIIS/DIIS
   @DF-RKS iter   4:   -76.40863699489705   -1.18732e-03   1.01704e-04 ADIIS/DIIS
   @DF-RKS iter   5:   -76.40863821162736   -1.21673e-06   2.79537e-05 DIIS
   @DF-RKS iter   6:   -76.40863831299218   -1.01365e-07   9.32219e-07 DIIS
  Energy and wave function converged.


  ==> Post-Iterations <==

   Electrons on quadrature grid:
      Ntotal   =   10.0000000169 ; deviation = 1.694e-08 

    Orbital Energies [Eh]
    ---------------------

    Doubly Occupied:                                                      

       1A    -19.135969     2A     -0.998513     3A     -0.523070  
       4A     -0.368051     5A     -0.290855  

    Virtual:                                                              

       6A      0.064376     7A      0.150837     8A      0.783098  
       9A      0.860951    10A      0.891277    11A      0.893748  
      12A      1.069423    13A      1.186595    14A      1.734703  
      15A      1.743503    16A      1.781749    17A      2.288431  
      18A      2.590388    19A      3.558905  

    Final Occupation by Irrep:
              A 
    DOCC [     5 ]
    NA   [     5 ]
    NB   [     5 ]

  @DF-RKS Final Energy:   -76.40863831299218

   => Energetics <=

    Nuclear Repulsion Energy =              9.1383303347379314
    One-Electron Energy =                -123.0339011295569094
    Two-Electron Energy =                  45.0466038406837299
    DFT Exchange-Correlation Energy =      -7.5596625628103249
    Empirical Dispersion Energy =          -0.0000087960465998
    VV10 Nonlocal Energy =                  0.0000000000000000
    Total Energy =                        -76.4086383129921813

Computation Completed


Properties will be evaluated at   0.000000,   0.000000,   0.000000 [a0]

Properties computed using the SCF density matrix


 Multipole Moments:

 ------------------------------------------------------------------------------------
     Multipole            Electronic (a.u.)      Nuclear  (a.u.)        Total (a.u.)
 ------------------------------------------------------------------------------------

 L = 1.  Multiply by 2.5417464519 to convert [e a0] to [Debye]
 Dipole X            :         12.0216991          -12.3657185           -0.3440194
 Dipole Y            :         19.3694023          -18.9949710            0.3744312
 Dipole Z            :          9.9908785          -10.6215343           -0.6306557
 Magnitude           :                                                    0.8101079

 ------------------------------------------------------------------------------------

*** tstop() called on Rulai at Wed May  8 10:44:34 2024
Module time:
	user time   =       1.11 seconds =       0.02 minutes
	system time =       0.19 seconds =       0.00 minutes
	total time  =          3 seconds =       0.05 minutes
Total time:
	user time   =       1.11 seconds =       0.02 minutes
	system time =       0.19 seconds =       0.00 minutes
	total time  =          3 seconds =       0.05 minutes

    Psi4 stopped on: Wednesday, 08 May 2024 10:44AM
    Psi4 wall time for execution: 0:00:03.72


    -----------------------------------------------------------------------
          Psi4: An Open-Source Ab Initio Electronic Structure Package
                               Psi4 1.9.1 release

                         Git: Rev {} zzzzzzz 


    D. G. A. Smith, L. A. Burns, A. C. Simmonett, R. M. Parrish,
    M. C. Schieber, R. Galvelis, P. Kraus, H. Kruse, R. Di Remigio,
    A. Alenaizan, A. M. James, S. Lehtola, J. P. Misiewicz, M. Scheurer,
    R. A. Shaw, J. B. Schriber, Y. Xie, Z. L. Glick, D. A. Sirianni,
    J. S. O'Brien, J. M. Waldrop, A. Kumar, E. G. Hohenstein,
    B. P. Pritchard, B. R. Brooks, H. F. Schaefer III, A. Yu. Sokolov,
    K. Patkowski, A. E. DePrince III, U. Bozkaya, R. A. King,
    F. A. Evangelista, J. M. Turney, T. D. Crawford, C. D. Sherrill,
    J. Chem. Phys. 152(18) 184108 (2020). https://doi.org/10.1063/5.0006002

                            Additional Code Authors
    E. T. Seidl, C. L. Janssen, E. F. Valeev, M. L. Leininger,
    J. F. Gonthier, R. M. Richard, H. R. McAlexander, M. Saitow, X. Wang,
    P. Verma, M. H. Lechner, A. Jiang, S. Behnle, A. G. Heide,
    M. F. Herbst, and D. L. Poole

             Previous Authors, Complete List of Code Contributors,
                       and Citations for Specific Modules
    https://github.com/psi4/psi4/blob/master/codemeta.json
    https://github.com/psi4/psi4/graphs/contributors
    http://psicode.org/psi4manual/master/introduction.html#citing-psifour

    -----------------------------------------------------------------------


    Psi4 started on: Wednesday, 08 May 2024 10:44AM

    Process ID: 1649852
    Host:       Rulai
    PSIDATADIR: /home/yzhang/.conda/envs/qcfractal-worker-psi4/share/psi4
    Memory:     500.0 MiB
    Threads:    1
    
  ==> Input QCSchema <==

--------------------------------------------------------------------------
{'driver': 'energy',
 'extras': {'psiapi': True, 'wfn_qcvars_only': True},
 'id': None,
 'keywords': {'function_kwargs': {}},
 'model': {'basis': '6-31g*', 'method': 'b3lyp-d3'},
 'molecule': {'atom_labels': ['', '', ''],
              'atomic_numbers': [8, 1, 1],
              'extras': {},
              'fix_com': True,
              'fix_orientation': True,
              'fragment_charges': [0.0],
              'fragment_multiplicities': [1],
              'fragments': [[0, 1, 2]],
              'geometry': [0.3804510719715566, -0.48132994817360947, 3.8686242540594624, 1.2832981529996488,
                           -1.8077007476858, 4.690212544775033, -0.2276270793770081, -1.1918153818225292,
                           2.2879868359420534],
              'mass_numbers': [16, 1, 1],
              'masses': [15.99491461957, 1.00782503223, 1.00782503223],
              'molecular_charge': 0.0,
              'molecular_multiplicity': 1,
              'name': 'trimer_sub3f_4_5230',
              'provenance': {'creator': 'QCElemental',
                             'routine': 'qcelemental.molparse.from_string',
                             'version': '0.27.1'},
              'real': [True, True, True],
              'schema_name': 'qcschema_molecule',
              'schema_version': 2,
              'symbols': ['O', 'H', 'H'],
              'validated': True},
 'protocols': {'stdout': True},
 'provenance': {'creator': 'QCElemental', 'routine': 'qcelemental.models.results', 'version': '0.27.1'},
 'schema_name': 'qcschema_input',
 'schema_version': 1}
--------------------------------------------------------------------------

Scratch directory: /tmp/
   => Libint2 <=

    Primary   basis highest AM E, G, H:  6, 6, 3
    Auxiliary basis highest AM E, G, H:  7, 7, 4
    Onebody   basis highest AM E, G, H:  -, -, -
    Solid Harmonics ordering:            Gaussian

*** tstart() called on Rulai
*** at Wed May  8 10:44:34 2024

   => Loading Basis Set <=

    Name: 6-31G*
    Role: ORBITAL
    Keyword: BASIS
    atoms 1   entry O          line   145 file /home/yzhang/.conda/envs/qcfractal-worker-psi4/share/psi4/basis/6-31gs.gbs 
    atoms 2-3 entry H          line    44 file /home/yzhang/.conda/envs/qcfractal-worker-psi4/share/psi4/basis/6-31gs.gbs 

   => B3LYP-D3: Empirical Dispersion <=

    Grimme's -D3 (zero-damping) Dispersion Correction
    Grimme S.; Antony J.; Ehrlich S.; Krieg H. (2010), J. Chem. Phys., 132: 154104

        s6 =       1.000000
        s8 =       1.703000
       sr6 =       1.261000
    alpha6 =      14.000000
       sr8 =       1.000000


         ---------------------------------------------------------
                                   SCF
               by Justin Turney, Rob Parrish, Andy Simmonett
                          and Daniel G. A. Smith
                              RKS Reference
                        1 Threads,    500 MiB Core
         ---------------------------------------------------------

  ==> Geometry <==

    Molecular point group: c1
    Full point group: C1

    Geometry (in Bohr), charge = 0, multiplicity = 1:

       Center              X                  Y                   Z               Mass       
    ------------   -----------------  -----------------  -----------------  -----------------
         O            0.380451071972    -0.481329948174     3.868624254059    15.994914619570
         H            1.283298153000    -1.807700747686     4.690212544775     1.007825032230
         H           -0.227627079377    -1.191815381823     2.287986835942     1.007825032230

  Running in c1 symmetry.

  Rotational constants: A =     20.83830  B =      0.21727  C =      0.21607 [cm^-1]
  Rotational constants: A = 624716.50611  B =   6513.69944  C =   6477.47581 [MHz]
  Nuclear repulsion =    9.138333592795911

  Charge       = 0
  Multiplicity = 1
  Electrons    = 10
  Nalpha       = 5
  Nbeta        = 5

  ==> Algorithm <==

  SCF Algorithm Type is DF.
  DIIS enabled.
  MOM disabled.
  Fractional occupation disabled.
  Guess Type is SAD.
  Energy threshold   = 1.00e-06
  Density threshold  = 1.00e-06
  Integral threshold = 1.00e-12

  ==> Primary Basis <==

  Basis Set: 6-31G*
    Blend: 6-31G*
    Number of shells: 10
    Number of basis functions: 19
    Number of Cartesian functions: 19
    Spherical Harmonics?: false
    Max angular momentum: 2

  ==> DFT Potential <==

   => LibXC <=

    Version 6.2.2
    S. Lehtola, C. Steigemann, M. J.T. Oliveira, and M. A.L. Marques.,  SoftwareX 7, 1–5 (2018) (10.1016/j.softx.2017.11.002)

   => Composite Functional: B3LYP-D3ZERO2B <= 

    B3LYP-d3zero2b Hyb-GGA Exchange-Correlation Functional

    P. J. Stephens, F. J. Devlin, C. F. Chabalowski, and M. J. Frisch.,  J. Phys. Chem. 98, 11623 (1994) (10.1021/j100096a001)

    Deriv               =              1
    GGA                 =           TRUE
    Meta                =          FALSE

    Exchange Hybrid     =           TRUE
    MP2 Hybrid          =          FALSE

   => Exchange Functionals <=

    0.0800   Slater exchange
    0.7200         Becke 88

   => Exact (HF) Exchange <=

    0.2000               HF 

   => Correlation Functionals <=

    0.1900   Vosko, Wilk & Nusair (VWN5_RPA)
    0.8100   Lee, Yang & Parr

   => LibXC Density Thresholds  <==

    XC_HYB_GGA_XC_B3LYP:  1.00E-15 

   => Molecular Quadrature <=

    Radial Scheme          =       TREUTLER
    Pruning Scheme         =           NONE
    Nuclear Scheme         =       TREUTLER

    Blocking Scheme        =         OCTREE
    BS radius alpha        =              1
    Pruning alpha          =              1
    Radial Points          =             75
    Spherical Points       =            302
    Total Points           =          65929
    Total Blocks           =            537
    Max Points             =            255
    Max Functions          =             19
    Weights Tolerance      =       1.00E-15

   => Loading Basis Set <=

    Name: (6-31G* AUX)
    Role: JKFIT
    Keyword: DF_BASIS_SCF
    atoms 1   entry O          line   221 file /home/yzhang/.conda/envs/qcfractal-worker-psi4/share/psi4/basis/cc-pvdz-jkfit.gbs 
    atoms 2-3 entry H          line    51 file /home/yzhang/.conda/envs/qcfractal-worker-psi4/share/psi4/basis/cc-pvdz-jkfit.gbs 

  ==> Integral Setup <==

  DFHelper Memory: AOs need 0.001 GiB; user supplied 0.330 GiB. 
  Using in-core AOs.

  ==> MemDFJK: Density-Fitted J/K Matrices <==

    J tasked:                   Yes
    K tasked:                   Yes
    wK tasked:                   No
    OpenMP threads:               1
    Memory [MiB]:               338
    Algorithm:                 Core
    Schwarz Cutoff:           1E-12
    Mask sparsity (%):       0.0000
    Fitting Condition:        1E-10

   => Auxiliary Basis Set <=

  Basis Set: (6-31G* AUX)
    Blend: CC-PVDZ-JKFIT
    Number of shells: 42
    Number of basis functions: 131
    Number of Cartesian functions: 131
    Spherical Harmonics?: false
    Max angular momentum: 3

  Cached 100.0% of DFT collocation blocks in 0.036 [GiB].

  Minimum eigenvalue in the overlap matrix is 2.2507616283E-02.
  Reciprocal condition number of the overlap matrix is 4.8302824249E-03.
    Using symmetric orthogonalization.

  ==> Pre-Iterations <==

  SCF Guess: Superposition of Atomic Densities via on-the-fly atomic UHF (no occupation information).

   -------------------------
    Irrep   Nso     Nmo    
   -------------------------
     A         19      19 
   -------------------------
    Total      19      19
   -------------------------

  ==> Iterations <==

                           Total Energy        Delta E     RMS |[F,P]|

   @DF-RKS iter SAD:   -76.11027163981119   -7.61103e+01   0.00000e+00 
   @DF-RKS iter   1:   -76.26217653269211   -1.51905e-01   3.32609e-02 ADIIS/DIIS
   @DF-RKS iter   2:   -76.11134327336407    1.50833e-01   4.71218e-02 ADIIS/DIIS
   @DF-RKS iter   3:   -76.40744966811597   -2.96106e-01   3.15028e-03 ADIIS/DIIS
   @DF-RKS iter   4:   -76.40863698724407   -1.18732e-03   1.01704e-04 ADIIS/DIIS
   @DF-RKS iter   5:   -76.40863820397549   -1.21673e-06   2.79538e-05 DIIS
   @DF-RKS iter   6:   -76.40863830534042   -1.01365e-07   9.32211e-07 DIIS
  Energy and wave function converged.


  ==> Post-Iterations <==

   Electrons on quadrature grid:
      Ntotal   =   10.0000000169 ; deviation = 1.694e-08 

    Orbital Energies [Eh]
    ---------------------

    Doubly Occupied:                                                      

       1A    -19.135969     2A     -0.998513     3A     -0.523071  
       4A     -0.368050     5A     -0.290855  

    Virtual:                                                              

       6A      0.064376     7A      0.150837     8A      0.783099  
       9A      0.860951    10A      0.891277    11A      0.893748  
      12A      1.069423    13A      1.186594    14A      1.734703  
      15A      1.743503    16A      1.781749    17A      2.288431  
      18A      2.590389    19A      3.558906  

    Final Occupation by Irrep:
              A 
    DOCC [     5 ]
    NA   [     5 ]
    NB   [     5 ]

  @DF-RKS Final Energy:   -76.40863830534042

   => Energetics <=

    Nuclear Repulsion Energy =              9.1383335927959113
    One-Electron Energy =                -123.0339072757726058
    Two-Electron Energy =                  45.0466070130884830
    DFT Exchange-Correlation Energy =      -7.5596628393933125
    Empirical Dispersion Energy =          -0.0000087960589121
    VV10 Nonlocal Energy =                  0.0000000000000000
    Total Energy =                        -76.4086383053404177

Computation Completed


Properties will be evaluated at   0.000000,   0.000000,   0.000000 [a0]

Properties computed using the SCF density matrix


 Multipole Moments:

 ------------------------------------------------------------------------------------
     Multipole            Electronic (a.u.)      Nuclear  (a.u.)        Total (a.u.)
 ------------------------------------------------------------------------------------

 L = 1.  Multiply by 2.5417464519 to convert [e a0] to [Debye]
 Dipole X            :         -3.9869345            4.0992796            0.1123452
 Dipole Y            :          6.0964209           -6.8501557           -0.7537348
 Dipole Z            :        -38.2020319           37.9271934           -0.2748384
 Magnitude           :                                                    0.8101072

 ------------------------------------------------------------------------------------

*** tstop() called on Rulai at Wed May  8 10:44:35 2024
Module time:
	user time   =       0.58 seconds =       0.01 minutes
	system time =       0.02 seconds =       0.00 minutes
	total time  =          1 seconds =       0.02 minutes
Total time:
	user time   =       1.75 seconds =       0.03 minutes
	system time =       0.22 seconds =       0.00 minutes
	total time  =          4 seconds =       0.07 minutes

    Psi4 stopped on: Wednesday, 08 May 2024 10:44AM
    Psi4 wall time for execution: 0:00:00.71


    -----------------------------------------------------------------------
          Psi4: An Open-Source Ab Initio Electronic Structure Package
                               Psi4 1.9.1 release

                         Git: Rev {} zzzzzzz 


    D. G. A. Smith, L. A. Burns, A. C. Simmonett, R. M. Parrish,
    M. C. Schieber, R. Galvelis, P. Kraus, H. Kruse, R. Di Remigio,
    A. Alenaizan, A. M. James, S. Lehtola, J. P. Misiewicz, M. Scheurer,
    R. A. Shaw, J. B. Schriber, Y. Xie, Z. L. Glick, D. A. Sirianni,
    J. S. O'Brien, J. M. Waldrop, A. Kumar, E. G. Hohenstein,
    B. P. Pritchard, B. R. Brooks, H. F. Schaefer III, A. Yu. Sokolov,
    K. Patkowski, A. E. DePrince III, U. Bozkaya, R. A. King,
    F. A. Evangelista, J. M. Turney, T. D. Crawford, C. D. Sherrill,
    J. Chem. Phys. 152(18) 184108 (2020). https://doi.org/10.1063/5.0006002

                            Additional Code Authors
    E. T. Seidl, C. L. Janssen, E. F. Valeev, M. L. Leininger,
    J. F. Gonthier, R. M. Richard, H. R. McAlexander, M. Saitow, X. Wang,
    P. Verma, M. H. Lechner, A. Jiang, S. Behnle, A. G. Heide,
    M. F. Herbst, and D. L. Poole

             Previous Authors, Complete List of Code Contributors,
                       and Citations for Specific Modules
    https://github.com/psi4/psi4/blob/master/codemeta.json
    https://github.com/psi4/psi4/graphs/contributors
    http://psicode.org/psi4manual/master/introduction.html#citing-psifour

    -----------------------------------------------------------------------


    Psi4 started on: Wednesday, 08 May 2024 10:44AM

    Process ID: 1649852
    Host:       Rulai
    PSIDATADIR: /home/yzhang/.conda/envs/qcfractal-worker-psi4/share/psi4
    Memory:     500.0 MiB
    Threads:    1
    
  ==> Input QCSchema <==

--------------------------------------------------------------------------
{'driver': 'energy',
 'extras': {'psiapi': True, 'wfn_qcvars_only': True},
 'id': None,
 'keywords': {'function_kwargs': {}},
 'model': {'basis': '6-31g*', 'method': 'b3lyp-d3'},
 'molecule': {'atom_labels': ['', '', ''],
              'atomic_numbers': [8, 1, 1],
              'extras': {},
              'fix_com': True,
              'fix_orientation': True,
              'fragment_charges': [0.0],
              'fragment_multiplicities': [1],
              'fragments': [[0, 1, 2]],
              'geometry': [0.7074825399005888, 2.464482850579202, -2.870121156924963, 0.9878120722555009,
                           3.291512040755194, -1.2544457597976013, 2.0661304285534356, 2.9867268067202843,
                           -3.9334813860768314],
              'mass_numbers': [16, 1, 1],
              'masses': [15.99491461957, 1.00782503223, 1.00782503223],
              'molecular_charge': 0.0,
              'molecular_multiplicity': 1,
              'name': 'trimer_sub3f_4_5230',
              'provenance': {'creator': 'QCElemental',
                             'routine': 'qcelemental.molparse.from_string',
                             'version': '0.27.1'},
              'real': [True, True, True],
              'schema_name': 'qcschema_molecule',
              'schema_version': 2,
              'symbols': ['O', 'H', 'H'],
              'validated': True},
 'protocols': {'stdout': True},
 'provenance': {'creator': 'QCElemental', 'routine': 'qcelemental.models.results', 'version': '0.27.1'},
 'schema_name': 'qcschema_input',
 'schema_version': 1}
--------------------------------------------------------------------------

Scratch directory: /tmp/
   => Libint2 <=

    Primary   basis highest AM E, G, H:  6, 6, 3
    Auxiliary basis highest AM E, G, H:  7, 7, 4
    Onebody   basis highest AM E, G, H:  -, -, -
    Solid Harmonics ordering:            Gaussian

*** tstart() called on Rulai
*** at Wed May  8 10:44:35 2024

   => Loading Basis Set <=

    Name: 6-31G*
    Role: ORBITAL
    Keyword: BASIS
    atoms 1   entry O          line   145 file /home/yzhang/.conda/envs/qcfractal-worker-psi4/share/psi4/basis/6-31gs.gbs 
    atoms 2-3 entry H          line    44 file /home/yzhang/.conda/envs/qcfractal-worker-psi4/share/psi4/basis/6-31gs.gbs 

   => B3LYP-D3: Empirical Dispersion <=

    Grimme's -D3 (zero-damping) Dispersion Correction
    Grimme S.; Antony J.; Ehrlich S.; Krieg H. (2010), J. Chem. Phys., 132: 154104

        s6 =       1.000000
        s8 =       1.703000
       sr6 =       1.261000
    alpha6 =      14.000000
       sr8 =       1.000000


         ---------------------------------------------------------
                                   SCF
               by Justin Turney, Rob Parrish, Andy Simmonett
                          and Daniel G. A. Smith
                              RKS Reference
                        1 Threads,    500 MiB Core
         ---------------------------------------------------------

  ==> Geometry <==

    Molecular point group: c1
    Full point group: C1

    Geometry (in Bohr), charge = 0, multiplicity = 1:

       Center              X                  Y                   Z               Mass       
    ------------   -----------------  -----------------  -----------------  -----------------
         O            0.707482539901     2.464482850579    -2.870121156925    15.994914619570
         H            0.987812072256     3.291512040755    -1.254445759798     1.007825032230
         H            2.066130428553     2.986726806720    -3.933481386077     1.007825032230

  Running in c1 symmetry.

  Rotational constants: A =     14.59898  B =      0.21782  C =      0.21649 [cm^-1]
  Rotational constants: A = 437666.47641  B =   6530.02821  C =   6490.09789 [MHz]
  Nuclear repulsion =    9.138331229959089

  Charge       = 0
  Multiplicity = 1
  Electrons    = 10
  Nalpha       = 5
  Nbeta        = 5

  ==> Algorithm <==

  SCF Algorithm Type is DF.
  DIIS enabled.
  MOM disabled.
  Fractional occupation disabled.
  Guess Type is SAD.
  Energy threshold   = 1.00e-06
  Density threshold  = 1.00e-06
  Integral threshold = 1.00e-12

  ==> Primary Basis <==

  Basis Set: 6-31G*
    Blend: 6-31G*
    Number of shells: 10
    Number of basis functions: 19
    Number of Cartesian functions: 19
    Spherical Harmonics?: false
    Max angular momentum: 2

  ==> DFT Potential <==

   => LibXC <=

    Version 6.2.2
    S. Lehtola, C. Steigemann, M. J.T. Oliveira, and M. A.L. Marques.,  SoftwareX 7, 1–5 (2018) (10.1016/j.softx.2017.11.002)

   => Composite Functional: B3LYP-D3ZERO2B <= 

    B3LYP-d3zero2b Hyb-GGA Exchange-Correlation Functional

    P. J. Stephens, F. J. Devlin, C. F. Chabalowski, and M. J. Frisch.,  J. Phys. Chem. 98, 11623 (1994) (10.1021/j100096a001)

    Deriv               =              1
    GGA                 =           TRUE
    Meta                =          FALSE

    Exchange Hybrid     =           TRUE
    MP2 Hybrid          =          FALSE

   => Exchange Functionals <=

    0.0800   Slater exchange
    0.7200         Becke 88

   => Exact (HF) Exchange <=

    0.2000               HF 

   => Correlation Functionals <=

    0.1900   Vosko, Wilk & Nusair (VWN5_RPA)
    0.8100   Lee, Yang & Parr

   => LibXC Density Thresholds  <==

    XC_HYB_GGA_XC_B3LYP:  1.00E-15 

   => Molecular Quadrature <=

    Radial Scheme          =       TREUTLER
    Pruning Scheme         =           NONE
    Nuclear Scheme         =       TREUTLER

    Blocking Scheme        =         OCTREE
    BS radius alpha        =              1
    Pruning alpha          =              1
    Radial Points          =             75
    Spherical Points       =            302
    Total Points           =          65929
    Total Blocks           =            531
    Max Points             =            256
    Max Functions          =             19
    Weights Tolerance      =       1.00E-15

   => Loading Basis Set <=

    Name: (6-31G* AUX)
    Role: JKFIT
    Keyword: DF_BASIS_SCF
    atoms 1   entry O          line   221 file /home/yzhang/.conda/envs/qcfractal-worker-psi4/share/psi4/basis/cc-pvdz-jkfit.gbs 
    atoms 2-3 entry H          line    51 file /home/yzhang/.conda/envs/qcfractal-worker-psi4/share/psi4/basis/cc-pvdz-jkfit.gbs 

  ==> Integral Setup <==

  DFHelper Memory: AOs need 0.001 GiB; user supplied 0.330 GiB. 
  Using in-core AOs.

  ==> MemDFJK: Density-Fitted J/K Matrices <==

    J tasked:                   Yes
    K tasked:                   Yes
    wK tasked:                   No
    OpenMP threads:               1
    Memory [MiB]:               338
    Algorithm:                 Core
    Schwarz Cutoff:           1E-12
    Mask sparsity (%):       0.0000
    Fitting Condition:        1E-10

   => Auxiliary Basis Set <=

  Basis Set: (6-31G* AUX)
    Blend: CC-PVDZ-JKFIT
    Number of shells: 42
    Number of basis functions: 131
    Number of Cartesian functions: 131
    Spherical Harmonics?: false
    Max angular momentum: 3

  Cached 100.0% of DFT collocation blocks in 0.036 [GiB].

  Minimum eigenvalue in the overlap matrix is 2.2505338942E-02.
  Reciprocal condition number of the overlap matrix is 4.8302491845E-03.
    Using symmetric orthogonalization.

  ==> Pre-Iterations <==

  SCF Guess: Superposition of Atomic Densities via on-the-fly atomic UHF (no occupation information).

   -------------------------
    Irrep   Nso     Nmo    
   -------------------------
     A         19      19 
   -------------------------
    Total      19      19
   -------------------------

  ==> Iterations <==

                           Total Energy        Delta E     RMS |[F,P]|

   @DF-RKS iter SAD:   -76.11027142964097   -7.61103e+01   0.00000e+00 
   @DF-RKS iter   1:   -76.26217652682956   -1.51905e-01   3.32609e-02 ADIIS/DIIS
   @DF-RKS iter   2:   -76.11134303630345    1.50833e-01   4.71218e-02 ADIIS/DIIS
   @DF-RKS iter   3:   -76.40744965655944   -2.96107e-01   3.15028e-03 ADIIS/DIIS
   @DF-RKS iter   4:   -76.40863697938808   -1.18732e-03   1.01704e-04 ADIIS/DIIS
   @DF-RKS iter   5:   -76.40863819611975   -1.21673e-06   2.79537e-05 DIIS
   @DF-RKS iter   6:   -76.40863829748456   -1.01365e-07   9.32225e-07 DIIS
  Energy and wave function converged.


  ==> Post-Iterations <==

   Electrons on quadrature grid:
      Ntotal   =   10.0000000169 ; deviation = 1.694e-08 

    Orbital Energies [Eh]
    ---------------------

    Doubly Occupied:                                                      

       1A    -19.135969     2A     -0.998513     3A     -0.523071  
       4A     -0.368051     5A     -0.290855  

    Virtual:                                                              

       6A      0.064376     7A      0.150837     8A      0.783098  
       9A      0.860951    10A      0.891277    11A      0.893748  
      12A      1.069423    13A      1.186594    14A      1.734703  
      15A      1.743503    16A      1.781749    17A      2.288431  
      18A      2.590388    19A      3.558905  

    Final Occupation by Irrep:
              A 
    DOCC [     5 ]
    NA   [     5 ]
    NB   [     5 ]

  @DF-RKS Final Energy:   -76.40863829748456

   => Energetics <=

    Nuclear Repulsion Energy =              9.1383312299590891
    One-Electron Energy =                -123.0339028271404374
    Two-Electron Energy =                  45.0466047364727160
    DFT Exchange-Correlation Energy =      -7.5596626407214025
    Empirical Dispersion Energy =          -0.0000087960545221
    VV10 Nonlocal Energy =                  0.0000000000000000
    Total Energy =                        -76.4086382974845435

Computation Completed


Properties will be evaluated at   0.000000,   0.000000,   0.000000 [a0]

Properties computed using the SCF density matrix


 Multipole Moments:

 ------------------------------------------------------------------------------------
     Multipole            Electronic (a.u.)      Nuclear  (a.u.)        Total (a.u.)
 ------------------------------------------------------------------------------------

 L = 1.  Multiply by 2.5417464519 to convert [e a0] to [Debye]
 Dipole X            :         -8.1059637            8.7138028            0.6078392
 Dipole Y            :        -25.4964435           25.9941017            0.4976582
 Dipole Z            :         28.3467405          -28.1488964            0.1978441
 Magnitude           :                                                    0.8101076

 ------------------------------------------------------------------------------------

*** tstop() called on Rulai at Wed May  8 10:44:36 2024
Module time:
	user time   =       0.55 seconds =       0.01 minutes
	system time =       0.01 seconds =       0.00 minutes
	total time  =          1 seconds =       0.02 minutes
Total time:
	user time   =       2.34 seconds =       0.04 minutes
	system time =       0.23 seconds =       0.00 minutes
	total time  =          5 seconds =       0.08 minutes

    Psi4 stopped on: Wednesday, 08 May 2024 10:44AM
    Psi4 wall time for execution: 0:00:00.59


    -----------------------------------------------------------------------
          Psi4: An Open-Source Ab Initio Electronic Structure Package
                               Psi4 1.9.1 release

                         Git: Rev {} zzzzzzz 


    D. G. A. Smith, L. A. Burns, A. C. Simmonett, R. M. Parrish,
    M. C. Schieber, R. Galvelis, P. Kraus, H. Kruse, R. Di Remigio,
    A. Alenaizan, A. M. James, S. Lehtola, J. P. Misiewicz, M. Scheurer,
    R. A. Shaw, J. B. Schriber, Y. Xie, Z. L. Glick, D. A. Sirianni,
    J. S. O'Brien, J. M. Waldrop, A. Kumar, E. G. Hohenstein,
    B. P. Pritchard, B. R. Brooks, H. F. Schaefer III, A. Yu. Sokolov,
    K. Patkowski, A. E. DePrince III, U. Bozkaya, R. A. King,
    F. A. Evangelista, J. M. Turney, T. D. Crawford, C. D. Sherrill,
    J. Chem. Phys. 152(18) 184108 (2020). https://doi.org/10.1063/5.0006002

                            Additional Code Authors
    E. T. Seidl, C. L. Janssen, E. F. Valeev, M. L. Leininger,
    J. F. Gonthier, R. M. Richard, H. R. McAlexander, M. Saitow, X. Wang,
    P. Verma, M. H. Lechner, A. Jiang, S. Behnle, A. G. Heide,
    M. F. Herbst, and D. L. Poole

             Previous Authors, Complete List of Code Contributors,
                       and Citations for Specific Modules
    https://github.com/psi4/psi4/blob/master/codemeta.json
    https://github.com/psi4/psi4/graphs/contributors
    http://psicode.org/psi4manual/master/introduction.html#citing-psifour

    -----------------------------------------------------------------------


    Psi4 started on: Wednesday, 08 May 2024 10:44AM

    Process ID: 1649852
    Host:       Rulai
    PSIDATADIR: /home/yzhang/.conda/envs/qcfractal-worker-psi4/share/psi4
    Memory:     500.0 MiB
    Threads:    1
    
  ==> Input QCSchema <==

--------------------------------------------------------------------------
{'driver': 'energy',
 'extras': {'psiapi': True, 'wfn_qcvars_only': True},
 'id': None,
 'keywords': {'function_kwargs': {}},
 'model': {'basis': '6-31g*', 'method': 'b3lyp-d3'},
 'molecule': {'atom_labels': ['', '', '', '', '', ''],
              'atomic_numbers': [8, 1, 1, 8, 1, 1],
              'extras': {},
              'fix_com': True,
              'fix_orientation': True,
              'fragment_charges': [0.0, 0.0],
              'fragment_multiplicities': [1, 1],
              'fragments': [[0, 1, 2], [3, 4, 5]],
              'geometry': [0.7074825399005888, 2.464482850579202, -2.870121156924963, 0.9878120722555009,
                           3.291512040755194, -1.2544457597976013, 2.0661304285534356, 2.9867268067202843,
                           -3.9334813860768314, 0.3804510719715566, -0.48132994817360947, 3.8686242540594624,
                           1.2832981529996488, -1.8077007476858, 4.690212544775033, -0.2276270793770081,
                           -1.1918153818225292, 2.2879868359420534],
              'mass_numbers': [16, 1, 1, 16, 1, 1],
              'masses': [15.99491461957, 1.00782503223, 1.00782503223, 15.99491461957, 1.00782503223, 1.00782503223],
              'molecular_charge': 0.0,
              'molecular_multiplicity': 1,
              'name': 'trimer_sub3f_4_5230',
              'provenance': {'creator': 'QCElemental',
                             'routine': 'qcelemental.molparse.from_string',
                             'version': '0.27.1'},
              'real': [False, False, False, True, True, True],
              'schema_name': 'qcschema_molecule',
              'schema_version': 2,
              'symbols': ['O', 'H', 'H', 'O', 'H', 'H'],
              'validated': True},
 'protocols': {'stdout': True},
 'provenance': {'creator': 'QCElemental', 'routine': 'qcelemental.models.results', 'version': '0.27.1'},
 'schema_name': 'qcschema_input',
 'schema_version': 1}
--------------------------------------------------------------------------

Scratch directory: /tmp/
   => Libint2 <=

    Primary   basis highest AM E, G, H:  6, 6, 3
    Auxiliary basis highest AM E, G, H:  7, 7, 4
    Onebody   basis highest AM E, G, H:  -, -, -
    Solid Harmonics ordering:            Gaussian

*** tstart() called on Rulai
*** at Wed May  8 10:44:36 2024

   => Loading Basis Set <=

    Name: 6-31G*
    Role: ORBITAL
    Keyword: BASIS
    atoms 1, 4     entry O          line   145 file /home/yzhang/.conda/envs/qcfractal-worker-psi4/share/psi4/basis/6-31gs.gbs 
    atoms 2-3, 5-6 entry H          line    44 file /home/yzhang/.conda/envs/qcfractal-worker-psi4/share/psi4/basis/6-31gs.gbs 

   => B3LYP-D3: Empirical Dispersion <=

    Grimme's -D3 (zero-damping) Dispersion Correction
    Grimme S.; Antony J.; Ehrlich S.; Krieg H. (2010), J. Chem. Phys., 132: 154104

        s6 =       1.000000
        s8 =       1.703000
       sr6 =       1.261000
    alpha6 =      14.000000
       sr8 =       1.000000


         ---------------------------------------------------------
                                   SCF
               by Justin Turney, Rob Parrish, Andy Simmonett
                          and Daniel G. A. Smith
                              RKS Reference
                        1 Threads,    500 MiB Core
         ---------------------------------------------------------

  ==> Geometry <==

    Molecular point group: c1
    Full point group: C1

    Geometry (in Bohr), charge = 0, multiplicity = 1:

       Center              X                  Y                   Z               Mass       
    ------------   -----------------  -----------------  -----------------  -----------------
      Gh(O)           0.707482539901     2.464482850579    -2.870121156925    15.994914619570
      Gh(H)           0.987812072256     3.291512040755    -1.254445759798     1.007825032230
      Gh(H)           2.066130428553     2.986726806720    -3.933481386077     1.007825032230
         O            0.380451071972    -0.481329948174     3.868624254059    15.994914619570
         H            1.283298153000    -1.807700747686     4.690212544775     1.007825032230
         H           -0.227627079377    -1.191815381823     2.287986835942     1.007825032230

  Running in c1 symmetry.

  Rotational constants: A =      0.95679  B =      0.12075  C =      0.10834 [cm^-1]
  Rotational constants: A =  28683.92182  B =   3619.88242  C =   3247.87042 [MHz]
  Nuclear repulsion =    9.138333592795911

  Charge       = 0
  Multiplicity = 1
  Electrons    = 10
  Nalpha       = 5
  Nbeta        = 5

  ==> Algorithm <==

  SCF Algorithm Type is DF.
  DIIS enabled.
  MOM disabled.
  Fractional occupation disabled.
  Guess Type is SAD.
  Energy threshold   = 1.00e-06
  Density threshold  = 1.00e-06
  Integral threshold = 1.00e-12

  ==> Primary Basis <==

  Basis Set: 6-31G*
    Blend: 6-31G*
    Number of shells: 20
    Number of basis functions: 38
    Number of Cartesian functions: 38
    Spherical Harmonics?: false
    Max angular momentum: 2

  ==> DFT Potential <==

   => LibXC <=

    Version 6.2.2
    S. Lehtola, C. Steigemann, M. J.T. Oliveira, and M. A.L. Marques.,  SoftwareX 7, 1–5 (2018) (10.1016/j.softx.2017.11.002)

   => Composite Functional: B3LYP-D3ZERO2B <= 

    B3LYP-d3zero2b Hyb-GGA Exchange-Correlation Functional

    P. J. Stephens, F. J. Devlin, C. F. Chabalowski, and M. J. Frisch.,  J. Phys. Chem. 98, 11623 (1994) (10.1021/j100096a001)

    Deriv               =              1
    GGA                 =           TRUE
    Meta                =          FALSE

    Exchange Hybrid     =           TRUE
    MP2 Hybrid          =          FALSE

   => Exchange Functionals <=

    0.0800   Slater exchange
    0.7200         Becke 88

   => Exact (HF) Exchange <=

    0.2000               HF 

   => Correlation Functionals <=

    0.1900   Vosko, Wilk & Nusair (VWN5_RPA)
    0.8100   Lee, Yang & Parr

   => LibXC Density Thresholds  <==

    XC_HYB_GGA_XC_B3LYP:  1.00E-15 

   => Molecular Quadrature <=

    Radial Scheme          =       TREUTLER
    Pruning Scheme         =           NONE
    Nuclear Scheme         =       TREUTLER

    Blocking Scheme        =         OCTREE
    BS radius alpha        =              1
    Pruning alpha          =              1
    Radial Points          =             75
    Spherical Points       =            302
    Total Points           =         131782
    Total Blocks           =           1049
    Max Points             =            256
    Max Functions          =             37
    Weights Tolerance      =       1.00E-15

   => Loading Basis Set <=

    Name: (6-31G* AUX)
    Role: JKFIT
    Keyword: DF_BASIS_SCF
    atoms 1, 4     entry O          line   221 file /home/yzhang/.conda/envs/qcfractal-worker-psi4/share/psi4/basis/cc-pvdz-jkfit.gbs 
    atoms 2-3, 5-6 entry H          line    51 file /home/yzhang/.conda/envs/qcfractal-worker-psi4/share/psi4/basis/cc-pvdz-jkfit.gbs 

  ==> Integral Setup <==

  DFHelper Memory: AOs need 0.004 GiB; user supplied 0.262 GiB. 
  Using in-core AOs.

  ==> MemDFJK: Density-Fitted J/K Matrices <==

    J tasked:                   Yes
    K tasked:                   Yes
    wK tasked:                   No
    OpenMP threads:               1
    Memory [MiB]:               268
    Algorithm:                 Core
    Schwarz Cutoff:           1E-12
    Mask sparsity (%):       4.4321
    Fitting Condition:        1E-10

   => Auxiliary Basis Set <=

  Basis Set: (6-31G* AUX)
    Blend: CC-PVDZ-JKFIT
    Number of shells: 84
    Number of basis functions: 262
    Number of Cartesian functions: 262
    Spherical Harmonics?: false
    Max angular momentum: 3

  Cached 100.0% of DFT collocation blocks in 0.104 [GiB].

  Minimum eigenvalue in the overlap matrix is 2.2288046584E-02.
  Reciprocal condition number of the overlap matrix is 4.7642001137E-03.
    Using symmetric orthogonalization.

  ==> Pre-Iterations <==

  SCF Guess: Superposition of Atomic Densities via on-the-fly atomic UHF (no occupation information).

   -------------------------
    Irrep   Nso     Nmo    
   -------------------------
     A         38      38 
   -------------------------
    Total      38      38
   -------------------------

  ==> Iterations <==

                           Total Energy        Delta E     RMS |[F,P]|

   @DF-RKS iter SAD:   -76.11027307454854   -7.61103e+01   0.00000e+00 
   @DF-RKS iter   1:   -76.26255004993713   -1.52277e-01   1.66242e-02 ADIIS/DIIS
   @DF-RKS iter   2:   -76.10985233649119    1.52698e-01   2.36218e-02 ADIIS/DIIS
   @DF-RKS iter   3:   -76.40872730434961   -2.98875e-01   7.30724e-04 ADIIS/DIIS
   @DF-RKS iter   4:   -76.40896888247661   -2.41578e-04   8.46016e-05 DIIS
   @DF-RKS iter   5:   -76.40897232162668   -3.43915e-06   1.63202e-05 DIIS
   @DF-RKS iter   6:   -76.40897246032408   -1.38697e-07   6.19826e-07 DIIS
  Energy and wave function converged.


  ==> Post-Iterations <==

   Electrons on quadrature grid:
      Ntotal   =   10.0000037299 ; deviation = 3.730e-06 

    Orbital Energies [Eh]
    ---------------------

    Doubly Occupied:                                                      

       1A    -19.136664     2A     -0.999023     3A     -0.523532  
       4A     -0.368576     5A     -0.291432  

    Virtual:                                                              

       6A      0.060769     7A      0.141491     8A      0.169567  
       9A      0.306098    10A      0.504787    11A      0.642234  
      12A      0.765250    13A      0.811774    14A      0.862333  
      15A      0.870266    16A      0.893951    17A      0.916613  
      18A      1.073885    19A      1.188946    20A      1.734277  
      21A      1.743264    22A      1.781324    23A      2.115041  
      24A      2.124620    25A      2.287940    26A      2.327228  
      27A      2.594192    28A      2.784549    29A      2.787370  
      30A      2.788096    31A      3.492891    32A      3.559929  
      33A      3.890398    34A      4.292389    35A      5.176993  
      36A      5.367479    37A      5.511701    38A     37.478382  

    Final Occupation by Irrep:
              A 
    DOCC [     5 ]
    NA   [     5 ]
    NB   [     5 ]

  @DF-RKS Final Energy:   -76.40897246032408

   => Energetics <=

    Nuclear Repulsion Energy =              9.1383335927959113
    One-Electron Energy =                -123.0294015342870750
    Two-Electron Energy =                  45.0411877841640944
    DFT Exchange-Correlation Energy =      -7.5590835069381157
    Empirical Dispersion Energy =          -0.0000087960589121
    VV10 Nonlocal Energy =                  0.0000000000000000
    Total Energy =                        -76.4089724603240796

Computation Completed


Properties will be evaluated at   0.000000,   0.000000,   0.000000 [a0]

Properties computed using the SCF density matrix


 Multipole Moments:

 ------------------------------------------------------------------------------------
     Multipole            Electronic (a.u.)      Nuclear  (a.u.)        Total (a.u.)
 ------------------------------------------------------------------------------------

 L = 1.  Multiply by 2.5417464519 to convert [e a0] to [Debye]
 Dipole X            :         -3.9878036            4.0992796            0.1114760
 Dipole Y            :          6.0911154           -6.8501557           -0.7590403
 Dipole Z            :        -38.1968055           37.9271934           -0.2696121
 Magnitude           :                                                    0.8131788

 ------------------------------------------------------------------------------------

*** tstop() called on Rulai at Wed May  8 10:44:37 2024
Module time:
	user time   =       1.17 seconds =       0.02 minutes
	system time =       0.03 seconds =       0.00 minutes
	total time  =          1 seconds =       0.02 minutes
Total time:
	user time   =       3.55 seconds =       0.06 minutes
	system time =       0.26 seconds =       0.00 minutes
	total time  =          6 seconds =       0.10 minutes

    Psi4 stopped on: Wednesday, 08 May 2024 10:44AM
    Psi4 wall time for execution: 0:00:01.25


    -----------------------------------------------------------------------
          Psi4: An Open-Source Ab Initio Electronic Structure Package
                               Psi4 1.9.1 release

                         Git: Rev {} zzzzzzz 


    D. G. A. Smith, L. A. Burns, A. C. Simmonett, R. M. Parrish,
    M. C. Schieber, R. Galvelis, P. Kraus, H. Kruse, R. Di Remigio,
    A. Alenaizan, A. M. James, S. Lehtola, J. P. Misiewicz, M. Scheurer,
    R. A. Shaw, J. B. Schriber, Y. Xie, Z. L. Glick, D. A. Sirianni,
    J. S. O'Brien, J. M. Waldrop, A. Kumar, E. G. Hohenstein,
    B. P. Pritchard, B. R. Brooks, H. F. Schaefer III, A. Yu. Sokolov,
    K. Patkowski, A. E. DePrince III, U. Bozkaya, R. A. King,
    F. A. Evangelista, J. M. Turney, T. D. Crawford, C. D. Sherrill,
    J. Chem. Phys. 152(18) 184108 (2020). https://doi.org/10.1063/5.0006002

                            Additional Code Authors
    E. T. Seidl, C. L. Janssen, E. F. Valeev, M. L. Leininger,
    J. F. Gonthier, R. M. Richard, H. R. McAlexander, M. Saitow, X. Wang,
    P. Verma, M. H. Lechner, A. Jiang, S. Behnle, A. G. Heide,
    M. F. Herbst, and D. L. Poole

             Previous Authors, Complete List of Code Contributors,
                       and Citations for Specific Modules
    https://github.com/psi4/psi4/blob/master/codemeta.json
    https://github.com/psi4/psi4/graphs/contributors
    http://psicode.org/psi4manual/master/introduction.html#citing-psifour

    -----------------------------------------------------------------------


    Psi4 started on: Wednesday, 08 May 2024 10:44AM

    Process ID: 1649852
    Host:       Rulai
    PSIDATADIR: /home/yzhang/.conda/envs/qcfractal-worker-psi4/share/psi4
    Memory:     500.0 MiB
    Threads:    1
    
  ==> Input QCSchema <==

--------------------------------------------------------------------------
{'driver': 'energy',
 'extras': {'psiapi': True, 'wfn_qcvars_only': True},
 'id': None,
 'keywords': {'function_kwargs': {}},
 'model': {'basis': '6-31g*', 'method': 'b3lyp-d3'},
 'molecule': {'atom_labels': ['', '', '', '', '', ''],
              'atomic_numbers': [8, 1, 1, 8, 1, 1],
              'extras': {},
              'fix_com': True,
              'fix_orientation': True,
              'fragment_charges': [0.0, 0.0],
              'fragment_multiplicities': [1, 1],
              'fragments': [[0, 1, 2], [3, 4, 5]],
              'geometry': [-1.144772584160762, -2.0020806225669716, -0.8913671991076271, -2.682319711275035,
                           -2.460711106091985, -1.712955489823198, -0.5252181260523017, -0.5176149574537448,
                           -1.7776411930428466, 0.7074825399005888, 2.464482850579202, -2.870121156924963,
                           0.9878120722555009, 3.291512040755194, -1.2544457597976013, 2.0661304285534356,
                           2.9867268067202843, -3.9334813860768314],
              'mass_numbers': [16, 1, 1, 16, 1, 1],
              'masses': [15.99491461957, 1.00782503223, 1.00782503223, 15.99491461957, 1.00782503223, 1.00782503223],
              'molecular_charge': 0.0,
              'molecular_multiplicity': 1,
              'name': 'trimer_sub3f_4_5230',
              'provenance': {'creator': 'QCElemental',
                             'routine': 'qcelemental.molparse.from_string',
                             'version': '0.27.1'},
              'real': [True, True, True, True, True, True],
              'schema_name': 'qcschema_molecule',
              'schema_version': 2,
              'symbols': ['O', 'H', 'H', 'O', 'H', 'H'],
              'validated': True},
 'protocols': {'stdout': True},
 'provenance': {'creator': 'QCElemental', 'routine': 'qcelemental.models.results', 'version': '0.27.1'},
 'schema_name': 'qcschema_input',
 'schema_version': 1}
--------------------------------------------------------------------------

Scratch directory: /tmp/
   => Libint2 <=

    Primary   basis highest AM E, G, H:  6, 6, 3
    Auxiliary basis highest AM E, G, H:  7, 7, 4
    Onebody   basis highest AM E, G, H:  -, -, -
    Solid Harmonics ordering:            Gaussian

*** tstart() called on Rulai
*** at Wed May  8 10:44:37 2024

   => Loading Basis Set <=

    Name: 6-31G*
    Role: ORBITAL
    Keyword: BASIS
    atoms 1, 4     entry O          line   145 file /home/yzhang/.conda/envs/qcfractal-worker-psi4/share/psi4/basis/6-31gs.gbs 
    atoms 2-3, 5-6 entry H          line    44 file /home/yzhang/.conda/envs/qcfractal-worker-psi4/share/psi4/basis/6-31gs.gbs 

   => B3LYP-D3: Empirical Dispersion <=

    Grimme's -D3 (zero-damping) Dispersion Correction
    Grimme S.; Antony J.; Ehrlich S.; Krieg H. (2010), J. Chem. Phys., 132: 154104

        s6 =       1.000000
        s8 =       1.703000
       sr6 =       1.261000
    alpha6 =      14.000000
       sr8 =       1.000000


         ---------------------------------------------------------
                                   SCF
               by Justin Turney, Rob Parrish, Andy Simmonett
                          and Daniel G. A. Smith
                              RKS Reference
                        1 Threads,    500 MiB Core
         ---------------------------------------------------------

  ==> Geometry <==

    Molecular point group: c1
    Full point group: C1

    Geometry (in Bohr), charge = 0, multiplicity = 1:

       Center              X                  Y                   Z               Mass       
    ------------   -----------------  -----------------  -----------------  -----------------
         O           -1.144772584161    -2.002080622567    -0.891367199108    15.994914619570
         H           -2.682319711275    -2.460711106092    -1.712955489823     1.007825032230
         H           -0.525218126052    -0.517614957454    -1.777641193043     1.007825032230
         O            0.707482539901     2.464482850579    -2.870121156925    15.994914619570
         H            0.987812072256     3.291512040755    -1.254445759798     1.007825032230
         H            2.066130428553     2.986726806720    -3.933481386077     1.007825032230

  Running in c1 symmetry.

  Rotational constants: A =      0.59264  B =      0.20210  C =      0.15249 [cm^-1]
  Rotational constants: A =  17766.80200  B =   6058.78487  C =   4571.54769 [MHz]
  Nuclear repulsion =   37.513335360758752

  Charge       = 0
  Multiplicity = 1
  Electrons    = 20
  Nalpha       = 10
  Nbeta        = 10

  ==> Algorithm <==

  SCF Algorithm Type is DF.
  DIIS enabled.
  MOM disabled.
  Fractional occupation disabled.
  Guess Type is SAD.
  Energy threshold   = 1.00e-06
  Density threshold  = 1.00e-06
  Integral threshold = 1.00e-12

  ==> Primary Basis <==

  Basis Set: 6-31G*
    Blend: 6-31G*
    Number of shells: 20
    Number of basis functions: 38
    Number of Cartesian functions: 38
    Spherical Harmonics?: false
    Max angular momentum: 2

  ==> DFT Potential <==

   => LibXC <=

    Version 6.2.2
    S. Lehtola, C. Steigemann, M. J.T. Oliveira, and M. A.L. Marques.,  SoftwareX 7, 1–5 (2018) (10.1016/j.softx.2017.11.002)

   => Composite Functional: B3LYP-D3ZERO2B <= 

    B3LYP-d3zero2b Hyb-GGA Exchange-Correlation Functional

    P. J. Stephens, F. J. Devlin, C. F. Chabalowski, and M. J. Frisch.,  J. Phys. Chem. 98, 11623 (1994) (10.1021/j100096a001)

    Deriv               =              1
    GGA                 =           TRUE
    Meta                =          FALSE

    Exchange Hybrid     =           TRUE
    MP2 Hybrid          =          FALSE

   => Exchange Functionals <=

    0.0800   Slater exchange
    0.7200         Becke 88

   => Exact (HF) Exchange <=

    0.2000               HF 

   => Correlation Functionals <=

    0.1900   Vosko, Wilk & Nusair (VWN5_RPA)
    0.8100   Lee, Yang & Parr

   => LibXC Density Thresholds  <==

    XC_HYB_GGA_XC_B3LYP:  1.00E-15 

   => Molecular Quadrature <=

    Radial Scheme          =       TREUTLER
    Pruning Scheme         =           NONE
    Nuclear Scheme         =       TREUTLER

    Blocking Scheme        =         OCTREE
    BS radius alpha        =              1
    Pruning alpha          =              1
    Radial Points          =             75
    Spherical Points       =            302
    Total Points           =         131051
    Total Blocks           =           1043
    Max Points             =            256
    Max Functions          =             38
    Weights Tolerance      =       1.00E-15

   => Loading Basis Set <=

    Name: (6-31G* AUX)
    Role: JKFIT
    Keyword: DF_BASIS_SCF
    atoms 1, 4     entry O          line   221 file /home/yzhang/.conda/envs/qcfractal-worker-psi4/share/psi4/basis/cc-pvdz-jkfit.gbs 
    atoms 2-3, 5-6 entry H          line    51 file /home/yzhang/.conda/envs/qcfractal-worker-psi4/share/psi4/basis/cc-pvdz-jkfit.gbs 

  ==> Integral Setup <==

  DFHelper Memory: AOs need 0.004 GiB; user supplied 0.242 GiB. 
  Using in-core AOs.

  ==> MemDFJK: Density-Fitted J/K Matrices <==

    J tasked:                   Yes
    K tasked:                   Yes
    wK tasked:                   No
    OpenMP threads:               1
    Memory [MiB]:               247
    Algorithm:                 Core
    Schwarz Cutoff:           1E-12
    Mask sparsity (%):       0.1385
    Fitting Condition:        1E-10

   => Auxiliary Basis Set <=

  Basis Set: (6-31G* AUX)
    Blend: CC-PVDZ-JKFIT
    Number of shells: 84
    Number of basis functions: 262
    Number of Cartesian functions: 262
    Spherical Harmonics?: false
    Max angular momentum: 3

  Cached 100.0% of DFT collocation blocks in 0.125 [GiB].

  Minimum eigenvalue in the overlap matrix is 1.3413499729E-02.
  Reciprocal condition number of the overlap matrix is 2.7312767430E-03.
    Using symmetric orthogonalization.

  ==> Pre-Iterations <==

  SCF Guess: Superposition of Atomic Densities via on-the-fly atomic UHF (no occupation information).

   -------------------------
    Irrep   Nso     Nmo    
   -------------------------
     A         38      38 
   -------------------------
    Total      38      38
   -------------------------

  ==> Iterations <==

                           Total Energy        Delta E     RMS |[F,P]|

   @DF-RKS iter SAD:  -152.27278727983904   -1.52273e+02   0.00000e+00 
   @DF-RKS iter   1:  -152.55693699229198   -2.84150e-01   2.28087e-02 ADIIS/DIIS
   @DF-RKS iter   2:  -152.31145095940349    2.45486e-01   3.13365e-02 ADIIS/DIIS
   @DF-RKS iter   3:  -152.82813504310573   -5.16684e-01   1.28569e-03 ADIIS/DIIS
   @DF-RKS iter   4:  -152.82882705030684   -6.92007e-04   4.08454e-04 ADIIS/DIIS
   @DF-RKS iter   5:  -152.82890733653397   -8.02862e-05   8.66200e-05 DIIS
   @DF-RKS iter   6:  -152.82891105189995   -3.71537e-06   1.09166e-05 DIIS
   @DF-RKS iter   7:  -152.82891111368971   -6.17898e-08   8.30292e-07 DIIS
  Energy and wave function converged.


  ==> Post-Iterations <==

   Electrons on quadrature grid:
      Ntotal   =   19.9999998286 ; deviation = -1.714e-07 

    Orbital Energies [Eh]
    ---------------------

    Doubly Occupied:                                                      

       1A    -19.173880     2A    -19.091939     3A     -1.035574  
       4A     -0.958077     5A     -0.558613     6A     -0.491050  
       7A     -0.409608     8A     -0.335656     9A     -0.318816  
      10A     -0.253930  

    Virtual:                                                              

      11A      0.039847    12A      0.121964    13A      0.128950  
      14A      0.269998    15A      0.750487    16A      0.810291  
      17A      0.834905    18A      0.863218    19A      0.887496  
      20A      0.927151    21A      0.943035    22A      1.004081  
      23A      1.097728    24A      1.138763    25A      1.156612  
      26A      1.467977    27A      1.696905    28A      1.712204  
      29A      1.770504    30A      1.778894    31A      1.813314  
      32A      1.824689    33A      2.251228    34A      2.432836  
      35A      2.558175    36A      2.681484    37A      3.603016  
      38A      3.770076  

    Final Occupation by Irrep:
              A 
    DOCC [    10 ]
    NA   [    10 ]
    NB   [    10 ]

  @DF-RKS Final Energy:  -152.82891111368971

   => Energetics <=

    Nuclear Repulsion Energy =             37.5133353607587523
    One-Electron Energy =                -284.5671700134070079
    Two-Electron Energy =                 109.3564498016301059
    DFT Exchange-Correlation Energy =     -15.1303689130485886
    Empirical Dispersion Energy =          -0.0011573496229791
    VV10 Nonlocal Energy =                  0.0000000000000000
    Total Energy =                       -152.8289111136897134

Computation Completed


Properties will be evaluated at   0.000000,   0.000000,   0.000000 [a0]

Properties computed using the SCF density matrix


 Multipole Moments:

 ------------------------------------------------------------------------------------
     Multipole            Electronic (a.u.)      Nuclear  (a.u.)        Total (a.u.)
 ------------------------------------------------------------------------------------

 L = 1.  Multiply by 2.5417464519 to convert [e a0] to [Debye]
 Dipole X            :          4.0568550           -3.6519157            0.4049394
 Dipole Y            :         -5.8687478            6.9991306            1.1303828
 Dipole Z            :         38.2445162          -38.7704307           -0.5259145
 Magnitude           :                                                    1.3108498

 ------------------------------------------------------------------------------------

*** tstop() called on Rulai at Wed May  8 10:44:38 2024
Module time:
	user time   =       1.33 seconds =       0.02 minutes
	system time =       0.01 seconds =       0.00 minutes
	total time  =          1 seconds =       0.02 minutes
Total time:
	user time   =       4.91 seconds =       0.08 minutes
	system time =       0.28 seconds =       0.00 minutes
	total time  =          7 seconds =       0.12 minutes

    Psi4 stopped on: Wednesday, 08 May 2024 10:44AM
    Psi4 wall time for execution: 0:00:01.37


    -----------------------------------------------------------------------
          Psi4: An Open-Source Ab Initio Electronic Structure Package
                               Psi4 1.9.1 release

                         Git: Rev {} zzzzzzz 


    D. G. A. Smith, L. A. Burns, A. C. Simmonett, R. M. Parrish,
    M. C. Schieber, R. Galvelis, P. Kraus, H. Kruse, R. Di Remigio,
    A. Alenaizan, A. M. James, S. Lehtola, J. P. Misiewicz, M. Scheurer,
    R. A. Shaw, J. B. Schriber, Y. Xie, Z. L. Glick, D. A. Sirianni,
    J. S. O'Brien, J. M. Waldrop, A. Kumar, E. G. Hohenstein,
    B. P. Pritchard, B. R. Brooks, H. F. Schaefer III, A. Yu. Sokolov,
    K. Patkowski, A. E. DePrince III, U. Bozkaya, R. A. King,
    F. A. Evangelista, J. M. Turney, T. D. Crawford, C. D. Sherrill,
    J. Chem. Phys. 152(18) 184108 (2020). https://doi.org/10.1063/5.0006002

                            Additional Code Authors
    E. T. Seidl, C. L. Janssen, E. F. Valeev, M. L. Leininger,
    J. F. Gonthier, R. M. Richard, H. R. McAlexander, M. Saitow, X. Wang,
    P. Verma, M. H. Lechner, A. Jiang, S. Behnle, A. G. Heide,
    M. F. Herbst, and D. L. Poole

             Previous Authors, Complete List of Code Contributors,
                       and Citations for Specific Modules
    https://github.com/psi4/psi4/blob/master/codemeta.json
    https://github.com/psi4/psi4/graphs/contributors
    http://psicode.org/psi4manual/master/introduction.html#citing-psifour

    -----------------------------------------------------------------------


    Psi4 started on: Wednesday, 08 May 2024 10:44AM

    Process ID: 1649852
    Host:       Rulai
    PSIDATADIR: /home/yzhang/.conda/envs/qcfractal-worker-psi4/share/psi4
    Memory:     500.0 MiB
    Threads:    1
    
  ==> Input QCSchema <==

--------------------------------------------------------------------------
{'driver': 'energy',
 'extras': {'psiapi': True, 'wfn_qcvars_only': True},
 'id': None,
 'keywords': {'function_kwargs': {}},
 'model': {'basis': '6-31g*', 'method': 'b3lyp-d3'},
 'molecule': {'atom_labels': ['', '', '', '', '', ''],
              'atomic_numbers': [8, 1, 1, 8, 1, 1],
              'extras': {},
              'fix_com': True,
              'fix_orientation': True,
              'fragment_charges': [0.0, 0.0],
              'fragment_multiplicities': [1, 1],
              'fragments': [[0, 1, 2], [3, 4, 5]],
              'geometry': [-1.144772584160762, -2.0020806225669716, -0.8913671991076271, -2.682319711275035,
                           -2.460711106091985, -1.712955489823198, -0.5252181260523017, -0.5176149574537448,
                           -1.7776411930428466, 0.3804510719715566, -0.48132994817360947, 3.8686242540594624,
                           1.2832981529996488, -1.8077007476858, 4.690212544775033, -0.2276270793770081,
                           -1.1918153818225292, 2.2879868359420534],
              'mass_numbers': [16, 1, 1, 16, 1, 1],
              'masses': [15.99491461957, 1.00782503223, 1.00782503223, 15.99491461957, 1.00782503223, 1.00782503223],
              'molecular_charge': 0.0,
              'molecular_multiplicity': 1,
              'name': 'trimer_sub3f_4_5230',
              'provenance': {'creator': 'QCElemental',
                             'routine': 'qcelemental.molparse.from_string',
                             'version': '0.27.1'},
              'real': [True, True, True, False, False, False],
              'schema_name': 'qcschema_molecule',
              'schema_version': 2,
              'symbols': ['O', 'H', 'H', 'O', 'H', 'H'],
              'validated': True},
 'protocols': {'stdout': True},
 'provenance': {'creator': 'QCElemental', 'routine': 'qcelemental.models.results', 'version': '0.27.1'},
 'schema_name': 'qcschema_input',
 'schema_version': 1}
--------------------------------------------------------------------------

Scratch directory: /tmp/
   => Libint2 <=

    Primary   basis highest AM E, G, H:  6, 6, 3
    Auxiliary basis highest AM E, G, H:  7, 7, 4
    Onebody   basis highest AM E, G, H:  -, -, -
    Solid Harmonics ordering:            Gaussian

*** tstart() called on Rulai
*** at Wed May  8 10:44:38 2024

   => Loading Basis Set <=

    Name: 6-31G*
    Role: ORBITAL
    Keyword: BASIS
    atoms 1, 4     entry O          line   145 file /home/yzhang/.conda/envs/qcfractal-worker-psi4/share/psi4/basis/6-31gs.gbs 
    atoms 2-3, 5-6 entry H          line    44 file /home/yzhang/.conda/envs/qcfractal-worker-psi4/share/psi4/basis/6-31gs.gbs 

   => B3LYP-D3: Empirical Dispersion <=

    Grimme's -D3 (zero-damping) Dispersion Correction
    Grimme S.; Antony J.; Ehrlich S.; Krieg H. (2010), J. Chem. Phys., 132: 154104

        s6 =       1.000000
        s8 =       1.703000
       sr6 =       1.261000
    alpha6 =      14.000000
       sr8 =       1.000000


         ---------------------------------------------------------
                                   SCF
               by Justin Turney, Rob Parrish, Andy Simmonett
                          and Daniel G. A. Smith
                              RKS Reference
                        1 Threads,    500 MiB Core
         ---------------------------------------------------------

  ==> Geometry <==

    Molecular point group: c1
    Full point group: C1

    Geometry (in Bohr), charge = 0, multiplicity = 1:

       Center              X                  Y                   Z               Mass       
    ------------   -----------------  -----------------  -----------------  -----------------
         O           -1.144772584161    -2.002080622567    -0.891367199108    15.994914619570
         H           -2.682319711275    -2.460711106092    -1.712955489823     1.007825032230
         H           -0.525218126052    -0.517614957454    -1.777641193043     1.007825032230
      Gh(O)           0.380451071972    -0.481329948174     3.868624254059    15.994914619570
      Gh(H)           1.283298153000    -1.807700747686     4.690212544775     1.007825032230
      Gh(H)          -0.227627079377    -1.191815381823     2.287986835942     1.007825032230

  Running in c1 symmetry.

  Rotational constants: A =      0.59278  B =      0.20200  C =      0.15254 [cm^-1]
  Rotational constants: A =  17771.12228  B =   6055.91927  C =   4572.89395 [MHz]
  Nuclear repulsion =    9.138330334737931

  Charge       = 0
  Multiplicity = 1
  Electrons    = 10
  Nalpha       = 5
  Nbeta        = 5

  ==> Algorithm <==

  SCF Algorithm Type is DF.
  DIIS enabled.
  MOM disabled.
  Fractional occupation disabled.
  Guess Type is SAD.
  Energy threshold   = 1.00e-06
  Density threshold  = 1.00e-06
  Integral threshold = 1.00e-12

  ==> Primary Basis <==

  Basis Set: 6-31G*
    Blend: 6-31G*
    Number of shells: 20
    Number of basis functions: 38
    Number of Cartesian functions: 38
    Spherical Harmonics?: false
    Max angular momentum: 2

  ==> DFT Potential <==

   => LibXC <=

    Version 6.2.2
    S. Lehtola, C. Steigemann, M. J.T. Oliveira, and M. A.L. Marques.,  SoftwareX 7, 1–5 (2018) (10.1016/j.softx.2017.11.002)

   => Composite Functional: B3LYP-D3ZERO2B <= 

    B3LYP-d3zero2b Hyb-GGA Exchange-Correlation Functional

    P. J. Stephens, F. J. Devlin, C. F. Chabalowski, and M. J. Frisch.,  J. Phys. Chem. 98, 11623 (1994) (10.1021/j100096a001)

    Deriv               =              1
    GGA                 =           TRUE
    Meta                =          FALSE

    Exchange Hybrid     =           TRUE
    MP2 Hybrid          =          FALSE

   => Exchange Functionals <=

    0.0800   Slater exchange
    0.7200         Becke 88

   => Exact (HF) Exchange <=

    0.2000               HF 

   => Correlation Functionals <=

    0.1900   Vosko, Wilk & Nusair (VWN5_RPA)
    0.8100   Lee, Yang & Parr

   => LibXC Density Thresholds  <==

    XC_HYB_GGA_XC_B3LYP:  1.00E-15 

   => Molecular Quadrature <=

    Radial Scheme          =       TREUTLER
    Pruning Scheme         =           NONE
    Nuclear Scheme         =       TREUTLER

    Blocking Scheme        =         OCTREE
    BS radius alpha        =              1
    Pruning alpha          =              1
    Radial Points          =             75
    Spherical Points       =            302
    Total Points           =         131051
    Total Blocks           =           1048
    Max Points             =            256
    Max Functions          =             38
    Weights Tolerance      =       1.00E-15

   => Loading Basis Set <=

    Name: (6-31G* AUX)
    Role: JKFIT
    Keyword: DF_BASIS_SCF
    atoms 1, 4     entry O          line   221 file /home/yzhang/.conda/envs/qcfractal-worker-psi4/share/psi4/basis/cc-pvdz-jkfit.gbs 
    atoms 2-3, 5-6 entry H          line    51 file /home/yzhang/.conda/envs/qcfractal-worker-psi4/share/psi4/basis/cc-pvdz-jkfit.gbs 

  ==> Integral Setup <==

  DFHelper Memory: AOs need 0.004 GiB; user supplied 0.241 GiB. 
  Using in-core AOs.

  ==> MemDFJK: Density-Fitted J/K Matrices <==

    J tasked:                   Yes
    K tasked:                   Yes
    wK tasked:                   No
    OpenMP threads:               1
    Memory [MiB]:               246
    Algorithm:                 Core
    Schwarz Cutoff:           1E-12
    Mask sparsity (%):       0.1385
    Fitting Condition:        1E-10

   => Auxiliary Basis Set <=

  Basis Set: (6-31G* AUX)
    Blend: CC-PVDZ-JKFIT
    Number of shells: 84
    Number of basis functions: 262
    Number of Cartesian functions: 262
    Spherical Harmonics?: false
    Max angular momentum: 3

  Cached 100.0% of DFT collocation blocks in 0.125 [GiB].

  Minimum eigenvalue in the overlap matrix is 1.3411620856E-02.
  Reciprocal condition number of the overlap matrix is 2.7309115445E-03.
    Using symmetric orthogonalization.

  ==> Pre-Iterations <==

  SCF Guess: Superposition of Atomic Densities via on-the-fly atomic UHF (no occupation information).

   -------------------------
    Irrep   Nso     Nmo    
   -------------------------
     A         38      38 
   -------------------------
    Total      38      38
   -------------------------

  ==> Iterations <==

                           Total Energy        Delta E     RMS |[F,P]|

   @DF-RKS iter SAD:   -76.11027141144277   -7.61103e+01   0.00000e+00 
[...]
   @DF-RKS iter   6:  -152.83131511137739   -5.75754e-06   8.42024e-06 DIIS
   @DF-RKS iter   7:  -152.83131519321489   -8.18375e-08   3.16056e-07 DIIS
  Energy and wave function converged.


  ==> Post-Iterations <==

   Electrons on quadrature grid:
      Ntotal   =   19.9999936070 ; deviation = -6.393e-06 

    Orbital Energies [Eh]
    ---------------------

    Doubly Occupied:                                                      

       1A    -19.174628     2A    -19.098461     3A     -1.036221  
       4A     -0.963192     5A     -0.559254     6A     -0.495220  
       7A     -0.411049     8A     -0.338498     9A     -0.321946  
      10A     -0.259119  

    Virtual:                                                              

      11A      0.037537    12A      0.113878    13A      0.126914  
      14A      0.181443    15A      0.268018    16A      0.357125  
      17A      0.530335    18A      0.635308    19A      0.749733  
      20A      0.798551    21A      0.833899    22A      0.835897  
      23A      0.861617    24A      0.889780    25A      0.920643  
      26A      0.950059    27A      1.003014    28A      1.096621  
      29A      1.139223    30A      1.142282    31A      1.261657  
      32A      1.472125    33A      1.695747    34A      1.711552  
      35A      1.769387    36A      1.776602    37A      1.816927  
      38A      1.845672    39A      2.126681    40A      2.250315  
      41A      2.313891    42A      2.327844    43A      2.439810  
      44A      2.559341    45A      2.676969    46A      2.778107  
      47A      2.780833    48A      2.784543    49A      3.537691  
      50A      3.659878    51A      3.801124    52A      4.012336  
      53A      4.336421    54A      5.177831    55A      5.406698  
      56A      5.608977    57A     37.707604  

    Final Occupation by Irrep:
              A 
    DOCC [    10 ]
    NA   [    10 ]
    NB   [    10 ]

  @DF-RKS Final Energy:  -152.83131519321489

   => Energetics <=

    Nuclear Repulsion Energy =             37.5133353607587523
    One-Electron Energy =                -284.5153439107864415
    Two-Electron Energy =                 109.2959519882148953
    DFT Exchange-Correlation Energy =     -15.1241012817791347
    Empirical Dispersion Energy =          -0.0011573496229791
    VV10 Nonlocal Energy =                  0.0000000000000000
    Total Energy =                       -152.8313151932148912

Computation Completed


Properties will be evaluated at   0.000000,   0.000000,   0.000000 [a0]

Properties computed using the SCF density matrix


 Multipole Moments:

 ------------------------------------------------------------------------------------
     Multipole            Electronic (a.u.)      Nuclear  (a.u.)        Total (a.u.)
 ------------------------------------------------------------------------------------

 L = 1.  Multiply by 2.5417464519 to convert [e a0] to [Debye]
 Dipole X            :          4.0422095           -3.6519157            0.3902938
 Dipole Y            :         -5.8781801            6.9991306            1.1209505
 Dipole Z            :         38.1818951          -38.7704307           -0.5885356
 Magnitude           :                                                    1.3248522

 ------------------------------------------------------------------------------------

*** tstop() called on Rulai at Wed May  8 10:45:01 2024
Module time:
	user time   =       2.23 seconds =       0.04 minutes
	system time =       0.03 seconds =       0.00 minutes
	total time  =          2 seconds =       0.03 minutes
Total time:
	user time   =      27.44 seconds =       0.46 minutes
	system time =       0.66 seconds =       0.01 minutes
	total time  =         30 seconds =       0.50 minutes

    Psi4 stopped on: Wednesday, 08 May 2024 10:45AM
    Psi4 wall time for execution: 0:00:02.31


    -----------------------------------------------------------------------
          Psi4: An Open-Source Ab Initio Electronic Structure Package
                               Psi4 1.9.1 release

                         Git: Rev {} zzzzzzz 


    D. G. A. Smith, L. A. Burns, A. C. Simmonett, R. M. Parrish,
    M. C. Schieber, R. Galvelis, P. Kraus, H. Kruse, R. Di Remigio,
    A. Alenaizan, A. M. James, S. Lehtola, J. P. Misiewicz, M. Scheurer,
    R. A. Shaw, J. B. Schriber, Y. Xie, Z. L. Glick, D. A. Sirianni,
    J. S. O'Brien, J. M. Waldrop, A. Kumar, E. G. Hohenstein,
    B. P. Pritchard, B. R. Brooks, H. F. Schaefer III, A. Yu. Sokolov,
    K. Patkowski, A. E. DePrince III, U. Bozkaya, R. A. King,
    F. A. Evangelista, J. M. Turney, T. D. Crawford, C. D. Sherrill,
    J. Chem. Phys. 152(18) 184108 (2020). https://doi.org/10.1063/5.0006002

                            Additional Code Authors
    E. T. Seidl, C. L. Janssen, E. F. Valeev, M. L. Leininger,
    J. F. Gonthier, R. M. Richard, H. R. McAlexander, M. Saitow, X. Wang,
    P. Verma, M. H. Lechner, A. Jiang, S. Behnle, A. G. Heide,
    M. F. Herbst, and D. L. Poole

             Previous Authors, Complete List of Code Contributors,
                       and Citations for Specific Modules
    https://github.com/psi4/psi4/blob/master/codemeta.json
    https://github.com/psi4/psi4/graphs/contributors
    http://psicode.org/psi4manual/master/introduction.html#citing-psifour

    -----------------------------------------------------------------------


    Psi4 started on: Wednesday, 08 May 2024 10:44AM

    Process ID: 1649852
    Host:       Rulai
    PSIDATADIR: /home/yzhang/.conda/envs/qcfractal-worker-psi4/share/psi4
    Memory:     500.0 MiB
    Threads:    1
    
  ==> Input QCSchema <==

--------------------------------------------------------------------------
{'driver': 'energy',
 'extras': {'psiapi': True, 'wfn_qcvars_only': True},
 'id': None,
 'keywords': {'function_kwargs': {}},
 'model': {'basis': '6-31g*', 'method': 'b3lyp-d3'},
 'molecule': {'atom_labels': ['', '', '', '', '', '', '', '', ''],
              'atomic_numbers': [8, 1, 1, 8, 1, 1, 8, 1, 1],
              'extras': {},
              'fix_com': True,
              'fix_orientation': True,
              'fragment_charges': [0.0, 0.0, 0.0],
              'fragment_multiplicities': [1, 1, 1],
              'fragments': [[0, 1, 2], [3, 4, 5], [6, 7, 8]],
              'geometry': [-1.144772584160762, -2.0020806225669716, -0.8913671991076271, -2.682319711275035,
                           -2.460711106091985, -1.712955489823198, -0.5252181260523017, -0.5176149574537448,
                           -1.7776411930428466, 0.7074825399005888, 2.464482850579202, -2.870121156924963,
                           0.9878120722555009, 3.291512040755194, -1.2544457597976013, 2.0661304285534356,
                           2.9867268067202843, -3.9334813860768314, 0.3804510719715566, -0.48132994817360947,
                           3.8686242540594624, 1.2832981529996488, -1.8077007476858, 4.690212544775033,
                           -0.2276270793770081, -1.1918153818225292, 2.2879868359420534],
              'mass_numbers': [16, 1, 1, 16, 1, 1, 16, 1, 1],
              'masses': [15.99491461957, 1.00782503223, 1.00782503223, 15.99491461957, 1.00782503223, 1.00782503223,
                         15.99491461957, 1.00782503223, 1.00782503223],
              'molecular_charge': 0.0,
              'molecular_multiplicity': 1,
              'name': 'trimer_sub3f_4_5230',
              'provenance': {'creator': 'QCElemental',
                             'routine': 'qcelemental.molparse.from_string',
                             'version': '0.27.1'},
              'real': [False, False, False, False, False, False, True, True, True],
              'schema_name': 'qcschema_molecule',
              'schema_version': 2,
              'symbols': ['O', 'H', 'H', 'O', 'H', 'H', 'O', 'H', 'H'],
              'validated': True},
 'protocols': {'stdout': True},
 'provenance': {'creator': 'QCElemental', 'routine': 'qcelemental.models.results', 'version': '0.27.1'},
 'schema_name': 'qcschema_input',
 'schema_version': 1}
--------------------------------------------------------------------------

Scratch directory: /tmp/
   => Libint2 <=

    Primary   basis highest AM E, G, H:  6, 6, 3
    Auxiliary basis highest AM E, G, H:  7, 7, 4
    Onebody   basis highest AM E, G, H:  -, -, -
    Solid Harmonics ordering:            Gaussian

*** tstart() called on Rulai
*** at Wed May  8 10:45:01 2024

   => Loading Basis Set <=

    Name: 6-31G*
    Role: ORBITAL
    Keyword: BASIS
    atoms 1, 4, 7       entry O          line   145 file /home/yzhang/.conda/envs/qcfractal-worker-psi4/share/psi4/basis/6-31gs.gbs 
    atoms 2-3, 5-6, 8-9 entry H          line    44 file /home/yzhang/.conda/envs/qcfractal-worker-psi4/share/psi4/basis/6-31gs.gbs 

   => B3LYP-D3: Empirical Dispersion <=

    Grimme's -D3 (zero-damping) Dispersion Correction
    Grimme S.; Antony J.; Ehrlich S.; Krieg H. (2010), J. Chem. Phys., 132: 154104

        s6 =       1.000000
        s8 =       1.703000
       sr6 =       1.261000
    alpha6 =      14.000000
       sr8 =       1.000000


         ---------------------------------------------------------
                                   SCF
               by Justin Turney, Rob Parrish, Andy Simmonett
                          and Daniel G. A. Smith
                              RKS Reference
                        1 Threads,    500 MiB Core
         ---------------------------------------------------------

  ==> Geometry <==

    Molecular point group: c1
    Full point group: C1

    Geometry (in Bohr), charge = 0, multiplicity = 1:

       Center              X                  Y                   Z               Mass       
    ------------   -----------------  -----------------  -----------------  -----------------
      Gh(O)          -1.144772584161    -2.002080622567    -0.891367199108    15.994914619570
      Gh(H)          -2.682319711275    -2.460711106092    -1.712955489823     1.007825032230
      Gh(H)          -0.525218126052    -0.517614957454    -1.777641193043     1.007825032230
      Gh(O)           0.707482539901     2.464482850579    -2.870121156925    15.994914619570
      Gh(H)           0.987812072256     3.291512040755    -1.254445759798     1.007825032230
      Gh(H)           2.066130428553     2.986726806720    -3.933481386077     1.007825032230
         O            0.380451071972    -0.481329948174     3.868624254059    15.994914619570
         H            1.283298153000    -1.807700747686     4.690212544775     1.007825032230
         H           -0.227627079377    -1.191815381823     2.287986835942     1.007825032230

  Running in c1 symmetry.

  Rotational constants: A =      0.33710  B =      0.12000  C =      0.08951 [cm^-1]
  Rotational constants: A =  10106.07222  B =   3597.39920  C =   2683.45383 [MHz]
  Nuclear repulsion =    9.138333592795911

  Charge       = 0
  Multiplicity = 1
  Electrons    = 10
  Nalpha       = 5
  Nbeta        = 5

  ==> Algorithm <==

  SCF Algorithm Type is DF.
  DIIS enabled.
  MOM disabled.
  Fractional occupation disabled.
  Guess Type is SAD.
  Energy threshold   = 1.00e-06
  Density threshold  = 1.00e-06
  Integral threshold = 1.00e-12

  ==> Primary Basis <==

  Basis Set: 6-31G*
    Blend: 6-31G*
    Number of shells: 30
    Number of basis functions: 57
    Number of Cartesian functions: 57
    Spherical Harmonics?: false
    Max angular momentum: 2

  ==> DFT Potential <==

   => LibXC <=

    Version 6.2.2
    S. Lehtola, C. Steigemann, M. J.T. Oliveira, and M. A.L. Marques.,  SoftwareX 7, 1–5 (2018) (10.1016/j.softx.2017.11.002)

   => Composite Functional: B3LYP-D3ZERO2B <= 

    B3LYP-d3zero2b Hyb-GGA Exchange-Correlation Functional

    P. J. Stephens, F. J. Devlin, C. F. Chabalowski, and M. J. Frisch.,  J. Phys. Chem. 98, 11623 (1994) (10.1021/j100096a001)

    Deriv               =              1
    GGA                 =           TRUE
    Meta                =          FALSE

    Exchange Hybrid     =           TRUE
    MP2 Hybrid          =          FALSE

   => Exchange Functionals <=

    0.0800   Slater exchange
    0.7200         Becke 88

   => Exact (HF) Exchange <=

    0.2000               HF 

   => Correlation Functionals <=

    0.1900   Vosko, Wilk & Nusair (VWN5_RPA)
    0.8100   Lee, Yang & Parr

   => LibXC Density Thresholds  <==

    XC_HYB_GGA_XC_B3LYP:  1.00E-15 

   => Molecular Quadrature <=

    Radial Scheme          =       TREUTLER
    Pruning Scheme         =           NONE
    Nuclear Scheme         =       TREUTLER

    Blocking Scheme        =         OCTREE
    BS radius alpha        =              1
    Pruning alpha          =              1
    Radial Points          =             75
    Spherical Points       =            302
    Total Points           =         195889
    Total Blocks           =           1514
    Max Points             =            256
    Max Functions          =             56
    Weights Tolerance      =       1.00E-15

   => Loading Basis Set <=

    Name: (6-31G* AUX)
    Role: JKFIT
    Keyword: DF_BASIS_SCF
    atoms 1, 4, 7       entry O          line   221 file /home/yzhang/.conda/envs/qcfractal-worker-psi4/share/psi4/basis/cc-pvdz-jkfit.gbs 
    atoms 2-3, 5-6, 8-9 entry H          line    51 file /home/yzhang/.conda/envs/qcfractal-worker-psi4/share/psi4/basis/cc-pvdz-jkfit.gbs 

  ==> Integral Setup <==

  DFHelper Memory: AOs need 0.011 GiB; user supplied 0.122 GiB. 
  Using in-core AOs.

  ==> MemDFJK: Density-Fitted J/K Matrices <==

    J tasked:                   Yes
    K tasked:                   Yes
    wK tasked:                   No
    OpenMP threads:               1
    Memory [MiB]:               125
    Algorithm:                 Core
    Schwarz Cutoff:           1E-12
    Mask sparsity (%):       2.0930
    Fitting Condition:        1E-10

   => Auxiliary Basis Set <=

  Basis Set: (6-31G* AUX)
    Blend: CC-PVDZ-JKFIT
    Number of shells: 126
    Number of basis functions: 393
    Number of Cartesian functions: 393
    Spherical Harmonics?: false
    Max angular momentum: 3

  Cached 100.0% of DFT collocation blocks in 0.244 [GiB].

  Minimum eigenvalue in the overlap matrix is 1.2115267336E-02.
  Reciprocal condition number of the overlap matrix is 2.4059049942E-03.
    Using symmetric orthogonalization.

  ==> Pre-Iterations <==

  SCF Guess: Superposition of Atomic Densities via on-the-fly atomic UHF (no occupation information).

   -------------------------
    Irrep   Nso     Nmo    
   -------------------------
     A         57      57 
   -------------------------
    Total      57      57
   -------------------------

  ==> Iterations <==

                           Total Energy        Delta E     RMS |[F,P]|

   @DF-RKS iter SAD:   -76.11026920598636   -7.61103e+01   0.00000e+00 
   @DF-RKS iter   1:   -76.26298236883409   -1.52713e-01   1.10869e-02 ADIIS/DIIS
   @DF-RKS iter   2:   -76.10461097675149    1.58371e-01   1.58745e-02 ADIIS/DIIS
   @DF-RKS iter   3:   -76.40946772789655   -3.04857e-01   3.03931e-04 ADIIS/DIIS
   @DF-RKS iter   4:   -76.40955786248385   -9.01346e-05   5.64298e-05 DIIS
   @DF-RKS iter   5:   -76.40956133368367   -3.47120e-06   1.08029e-05 DIIS
   @DF-RKS iter   6:   -76.40956147158153   -1.37898e-07   4.96102e-07 DIIS
  Energy and wave function converged.


  ==> Post-Iterations <==

   Electrons on quadrature grid:
      Ntotal   =    9.9999934578 ; deviation = -6.542e-06 

    Orbital Energies [Eh]
    ---------------------

    Doubly Occupied:                                                      

       1A    -19.137577     2A     -0.999624     3A     -0.524037  
       4A     -0.369193     5A     -0.292125  

    Virtual:                                                              

       6A      0.041524     7A      0.115463     8A      0.160984  
       9A      0.226119    10A      0.301244    11A      0.328887  
      12A      0.505656    13A      0.580581    14A      0.621363  
      15A      0.694467    16A      0.785398    17A      0.819840  
      18A      0.835604    19A      0.870128    20A      0.892634  
      21A      0.913257    22A      0.932889    23A      1.055344  
      24A      1.101279    25A      1.402307    26A      1.734058  
      27A      1.742959    28A      1.780800    29A      2.098883  
      30A      2.117393    31A      2.136832    32A      2.262845  
      33A      2.299997    34A      2.355963    35A      2.417378  
      36A      2.573980    37A      2.706939    38A      2.713739  
      39A      2.781928    40A      2.786795    41A      2.831917  
      42A      2.886857    43A      3.488449    44A      3.546199  
      45A      3.670209    46A      3.866713    47A      3.915484  
      48A      4.368546    49A      4.458470    50A      5.155401  
      51A      5.240724    52A      5.437933    53A      5.489547  
      54A      5.550994    55A      5.658080    56A     37.628457  
      57A     38.112244  

    Final Occupation by Irrep:
              A 
    DOCC [     5 ]
    NA   [     5 ]
    NB   [     5 ]

  @DF-RKS Final Energy:   -76.40956147158153

   => Energetics <=

    Nuclear Repulsion Energy =              9.1383335927959113
    One-Electron Energy =                -123.0242822032023753
    Two-Electron Energy =                  45.0349330005159345
    DFT Exchange-Correlation Energy =      -7.5585370656320992
    Empirical Dispersion Energy =          -0.0000087960589121
    VV10 Nonlocal Energy =                  0.0000000000000000
    Total Energy =                        -76.4095614715815259

Computation Completed


Properties will be evaluated at   0.000000,   0.000000,   0.000000 [a0]

Properties computed using the SCF density matrix


 Multipole Moments:

 ------------------------------------------------------------------------------------
     Multipole            Electronic (a.u.)      Nuclear  (a.u.)        Total (a.u.)
 ------------------------------------------------------------------------------------

 L = 1.  Multiply by 2.5417464519 to convert [e a0] to [Debye]
 Dipole X            :         -3.9849293            4.0992796            0.1143503
 Dipole Y            :          6.0920555           -6.8501557           -0.7581002
 Dipole Z            :        -38.1874944           37.9271934           -0.2603010
 Magnitude           :                                                    0.8096595

 ------------------------------------------------------------------------------------

*** tstop() called on Rulai at Wed May  8 10:45:03 2024
Module time:
	user time   =       2.02 seconds =       0.03 minutes
	system time =       0.03 seconds =       0.00 minutes
	total time  =          2 seconds =       0.03 minutes
Total time:
	user time   =      29.51 seconds =       0.49 minutes
	system time =       0.69 seconds =       0.01 minutes
	total time  =         32 seconds =       0.53 minutes

    Psi4 stopped on: Wednesday, 08 May 2024 10:45AM
    Psi4 wall time for execution: 0:00:02.09


  //>>>>>>>>>>>>>>>>>>>>>>>>>>>>>>>>>>>//
  //          ManyBody Results         //
  //<<<<<<<<<<<<<<<<<<<<<<<<<<<<<<<<<<<//


   ==> N-Body: Valiron-Mayer Function Counterpoise (VMFC) energies <==

        n-Body     Total Energy            Interaction Energy                          N-body Contribution to Interaction Energy
                   [Eh]                    [Eh]                  [kcal/mol]            [Eh]                  [kcal/mol]
             1     -229.225914915817        0.000000000000        0.000000000000        0.000000000000        0.000000000000
             2     -229.247126730432       -0.021211814615      -13.310614626738       -0.021211814615      -13.310614626738
  FULL/RTN   3     -229.249610487694       -0.023695571877      -14.869195839501       -0.002483757262       -1.558581212762


    Psi4 stopped on: Wednesday, 08 May 2024 10:45AM
    Psi4 wall time for execution: 0:00:36.27

*** Psi4 exiting successfully. Buy a developer a beer!
